         480 PROCESSORS WORKING

         
 *******************************************************************************
 *                                                                             *
 *                               CRYSTAL17                                     *
 *                      public : 1.0.2 - March 1st, 2018                       *
 *                       HTTP://WWW.CRYSTAL.UNITO.IT                           *
 *                                                                             *
 *                              MAIN AUTHORS                                   *
 *                                                                             *
 *  R. DOVESI(1,11), V.R. SAUNDERS(2), C. ROETTI(1,11), R. ORLANDO(1,11),      *
 *  C.M. ZICOVICH-WILSON(1,3), F. PASCALE(4), B. CIVALLERI(1,11),              *
 *  K. DOLL(5), N.M. HARRISON(2,6), I.J. BUSH(7), Ph. D'ARCO(8),               *
 *  M. LLUNELL(9), M. CAUSA'(10), Y. NOEL(8), L. MASCHIO(1,11), A. ERBA(1,11)  *
 *  M. RE'RAT(14), S. CASASSA(1,11)                                            *
 *                                                                             *
 *        CONTRIBUTIONS TO THE CODE HAVE ALSO BEEN GIVEN BY                    *
 *                                                                             *
 *  M. FERRABONE(1,11), M. DE LA PIERRE(1,11), M. FERRERO(1,11),               *
 *  J. BAIMA(1,11), E. ALBANESE(1,11), M.F. PEINTINGER(12), R. BAST(13),       *
 *  B. KIRTMAN(15), V. LACIVITA(1,11), R. DEMICHELIS(1,16)                     *
 *  G. BRANDEBURG(17), S. SALUSTRO(1,11), G. SANSONE(1,11)                     *
 *  M.T. RUGGIERO(18)                                                          *
 *                                                                             *
 * (1) THEORETICAL CHEMISTRY GROUP - UNIVERSITA' DI TORINO - TORINO (ITALY)    *
 * (2) COMPUTATIONAL SCIENCE & ENGINEERING DEPARTMENT - STFC DARESBURY (UK)    *
 * (3) UNIVERSIDAD AUTONOMA DEL ESTADO DE MORELOS - CUERNAVACA (MEXICO)        *
 * (4) UNIVERSITE' DE LORRAINE - NANCY (FRANCE)                                *
 * (5) UNIVERSITAET STUTTGART- STUTTGART (GERMANY)                             *
 * (6) IMPERIAL COLLEGE - LONDON (UK)                                          *
 * (7) OXFORD E-RESEARCH CENTRE - OXFORD (UK)                                  *
 * (8) UPMC - SORBONNE UNIVERSITES - PARIS (FRANCE)                            *
 * (9) UNIVERSIDAD DE BARCELONA - BARCELONA (SPAIN)                            *
 *(10) UNIVERSITA' DI NAPOLI "FEDERICO II" - NAPOLI (ITALY)                    *
 *(11) NIS - NANOSTRUCTURED INTERFACES AND SURFACES - TORINO (ITALY)           *
 *(12) MPI FUER CHEMISCHE ENERGIEKONVERSION - MUELHEIM AN DER RUHR (GERMANY)   *
 *(13) UNIVERSITY OF TROMSO - TROMSO (NORWAY)                                  *
 *(14) UNIVERSITE' DE PAU ET DES PAYS DE L'ADOUR - PAU (FRANCE)                *
 *(15) UNIVERSITY OF CALIFORNIA SANTA BARBARA - SANTA BARBARA (USA)            *
 *(16) CURTIN UNIVERSITY - PERTH (AUSTRALIA)                                   *
 *(17) UNIVERSITY COLLEGE LONDON - LONDON (UK)                                 *
 *(18) CAMBRIDGE UNIVERSITY - CAMBRIDGE (UK)                                   *
 *                                                                             *
 *******************************************************************************
 EEEEEEEEEE STARTING  DATE 03 07 2020 TIME 09:46:40.0
 GdMn2O 5 : de Pm.OptGeom.138663.optc006                                         

 GEOMETRY INPUT FROM EXTERNAL FILE (FORTRAN UNIT 34)
 3D - CRYSTAL 

 *******************************************************************************
 LATTICE PARAMETERS  (ANGSTROMS AND DEGREES) - PRIMITIVE CELL
       A          B          C        ALPHA      BETA     GAMMA        VOLUME
    8.56920    5.64334   14.67128    90.00000  90.00285  90.00000    709.486521
 INFORMATION **** CHKGRP **** SPGR WITH NO INVERSION

 NUMBER OF IRREDUCIBLE ATOMS IN THE CELL:   64

 CARTESIAN COORDINATES (ANGSTROM) - IRREDUCIBLE ATOMS AND SYMMETRY RELATED

 AT.IRR.  AT  AT.N.          X                   Y                   Z
     1     1   264    1.489582774422E+00  0.000000000000E+00  1.025070968682E+00
     2     2   264    1.486314525363E+00  0.000000000000E+00 -6.310563251977E+00
     3     3   264   -1.491033685410E+00  0.000000000000E+00 -1.025408735194E+00
     4     4   264   -1.487742945359E+00  0.000000000000E+00  6.310258360339E+00
     5     5   264   -2.794028913834E+00  0.000000000000E+00  2.644574269340E+00
     6     6   264   -2.797322778748E+00  0.000000000000E+00 -4.691077102468E+00
     7     7   264    2.795953550273E+00  0.000000000000E+00  4.693463387474E+00
     8     8   264    2.792700144749E+00  0.000000000000E+00 -2.642157783782E+00
     9     9    25    4.281460428015E+00  1.451837668439E+00 -3.097580696000E-03
    10    10    25    4.281460428015E+00 -1.451837668439E+00 -3.097580696000E-03
    11    11    25    4.284716573986E+00  1.451822206963E+00  7.332538739802E+00
    12    12    25    4.284716573986E+00 -1.451822206963E+00  7.332538739802E+00
    13    13    25   -1.307540538000E-03  1.451799368503E+00  3.669982516399E+00
    14    14    25   -1.307540538000E-03 -1.451799368503E+00  3.669982516399E+00
    15    15    25   -4.574511989000E-03  1.451797216686E+00 -3.665667260437E+00
    16    16    25   -4.574511989000E-03 -1.451797216686E+00 -3.665667260437E+00
    17    17    25    3.022478209219E+00  2.821667747030E+00  2.974216774952E+00
    18    18    25    3.019200544250E+00  2.821667747030E+00 -4.361435196459E+00
    19    19    25   -3.028520976990E+00  2.821667747030E+00  4.365350987366E+00
    20    20    25   -3.031779628539E+00  2.821667747030E+00 -2.970345492641E+00
    21    21    25   -1.263243001168E+00  2.821667747030E+00  6.943664830480E-01
    22    22    25   -1.266489976076E+00  2.821667747030E+00 -6.641297640366E+00
    23    23    25    1.257213194092E+00  2.821667747030E+00  6.639902301359E+00
    24    24    25    1.253928467842E+00  2.821667747030E+00 -6.957091539350E-01
    25    25     8   -1.006097429000E-03  1.552187349977E+00 -4.719615546000E-03
    26    26     8   -1.006097429000E-03 -1.552187349977E+00 -4.719615546000E-03
    27    27     8    2.287449945000E-03  1.552197669067E+00  7.330927320269E+00
    28    28     8    2.287449945000E-03 -1.552197669067E+00  7.330927320269E+00
    29    29     8    4.285526639229E+00  1.552000712730E+00  3.671430497800E+00
    30    30     8    4.285526639229E+00 -1.552000712730E+00  3.671430497800E+00
    31    31     8    4.282239950799E+00  1.552008201886E+00 -3.664214051605E+00
    32    32     8    4.282239950799E+00 -1.552008201886E+00 -3.664214051605E+00
    33    33     8    3.842646517373E+00  0.000000000000E+00  1.189955761641E+00
    34    34     8    3.839343369661E+00  0.000000000000E+00 -6.145658559491E+00
    35    35     8   -3.840216702623E+00  0.000000000000E+00 -1.188911706649E+00
    36    36     8   -3.836907314504E+00  0.000000000000E+00  6.146751684834E+00
    37    37     8    4.440967524580E-01  0.000000000000E+00 -2.475885493260E+00
    38    38     8    4.473755370040E-01  0.000000000000E+00  4.859760624160E+00
    39    39     8   -4.413554116960E-01  0.000000000000E+00  2.477108612329E+00
    40    40     8   -4.446083721180E-01  0.000000000000E+00 -4.858532104649E+00
    41    41     8    3.738634441330E+00  2.821667747030E+00  1.143619443133E+00
    42    42     8    3.735395928793E+00  2.821667747030E+00 -6.192012026364E+00
    43    43     8   -3.721949191798E+00  2.821667747030E+00 -1.134768442116E+00
    44    44     8   -3.718722464841E+00  2.821667747030E+00  6.200889687371E+00
    45    45     8    5.631150040370E-01  2.821667747030E+00 -2.530769961149E+00
    46    46     8    5.664788004110E-01  2.821667747030E+00  4.804839968459E+00
    47    47     8   -5.455041473010E-01  2.821667747030E+00  2.523758353176E+00
    48    48     8   -5.487207090370E-01  2.821667747030E+00 -4.811902553898E+00
    49    49     8    1.779185292354E+00  1.395189931994E+00  2.936292752614E+00
    50    50     8    1.779185292354E+00 -1.395189931994E+00  2.936292752614E+00
    51    51     8    1.775909348582E+00  1.395212913190E+00 -4.399342697240E+00
    52    52     8    1.775909348582E+00 -1.395212913190E+00 -4.399342697240E+00
    53    53     8   -1.773118752313E+00  1.407457406246E+00 -2.948729477247E+00
    54    54     8   -1.773118752313E+00 -1.407457406246E+00 -2.948729477247E+00
    55    55     8   -1.769847344340E+00  1.407464637972E+00  4.386959675204E+00
    56    56     8   -1.769847344340E+00 -1.407464637972E+00  4.386959675204E+00
    57    57     8    2.512041489551E+00  1.407158715154E+00 -7.183173051820E-01
    58    58     8    2.512041489551E+00 -1.407158715154E+00 -7.183173051820E-01
    59    59     8    2.515305516134E+00  1.407157320428E+00  6.617324644327E+00
    60    60     8    2.515305516134E+00 -1.407157320428E+00  6.617324644327E+00
    61    61     8   -2.506643733583E+00  1.395402786008E+00  7.331545650540E-01
    62    62     8   -2.506643733583E+00 -1.395402786008E+00  7.331545650540E-01
    63    63     8   -2.509910283893E+00  1.395381844800E+00 -6.602517877453E+00
    64    64     8   -2.509910283893E+00 -1.395381844800E+00 -6.602517877453E+00

 SYMMETRY CHANGED DURING OLD RUN :  INFORMATION ON SPACE GROUP LOST 
 NUMBER OF SYMMETRY OPERATORS         :    1
 *******************************************************************************
 LATTICE PARAMETERS (ANGSTROMS AND DEGREES) - BOHR = 0.5291772083 ANGSTROM
 PRIMITIVE CELL - CENTRING CODE 1/0 VOLUME=   709.486521 - DENSITY  6.512 g/cm^3
         A              B              C           ALPHA      BETA       GAMMA 
     8.56919749     5.64333549    14.67128413    90.000000  90.002853  90.000000
 *******************************************************************************
 ATOMS IN THE ASYMMETRIC UNIT   64 - ATOMS IN THE UNIT CELL:   64
     ATOM                 X/A                 Y/B                 Z/C    
 *******************************************************************************
      1 T 264 GD    1.737765373176E-01 -2.716461402311E-17  6.991953244431E-02
      2 T 264 GD    1.737769212566E-01  5.211489306577E-17 -4.300799824364E-01
      3 T 264 GD   -1.739458367426E-01  2.718393618576E-17 -6.994260375686E-02
      4 T 264 GD   -1.739435977607E-01 -5.209616899630E-17  4.300591526468E-01
      5 T 264 GD   -3.261925129087E-01  1.613978485415E-18  1.801606963915E-01
      6 T 264 GD   -3.261951173712E-01  8.089394756594E-17 -3.198399883832E-01
      7 T 264 GD    3.260352082812E-01 -8.090493471736E-17  3.200025921389E-01
      8 T 264 GD    3.260373237376E-01 -1.625728943000E-18 -1.799960327884E-01
      9 T  25 MN    4.996338796304E-01  2.572658793664E-01 -6.645515622020E-05
     10 T  25 MN    4.996338796304E-01 -2.572658793664E-01 -6.645515622020E-05
     11 T  25 MN    4.996320831876E-01  2.572631395903E-01  4.999332024413E-01
     12 T  25 MN    4.996320831876E-01 -2.572631395903E-01  4.999332024413E-01
     13 T  25 MN   -3.435882451510E-04  2.572590926113E-01  2.501472528751E-01
     14 T  25 MN   -3.435882451510E-04 -2.572590926113E-01  2.501472528751E-01
     15 T  25 MN   -3.430544033958E-04  2.572587113090E-01 -2.498533222769E-01
     16 T  25 MN   -3.430544033958E-04 -2.572587113090E-01 -2.498533222769E-01
     17 T  25 MN    3.525594405387E-01 -5.000000000000E-01  2.028257939146E-01
     18 T  25 MN    3.525587265929E-01 -5.000000000000E-01 -2.971749311818E-01
     19 T  25 MN   -3.536465972123E-01 -5.000000000000E-01  2.974415179135E-01
     20 T  25 MN   -3.536450900321E-01 -5.000000000000E-01 -2.025622402619E-01
     21 T  25 MN   -1.474528450223E-01 -5.000000000000E-01  4.728557642233E-02
     22 T  25 MN   -1.474499768967E-01 -5.000000000000E-01 -4.527159759218E-01
     23 T  25 MN    1.463674766056E-01 -5.000000000000E-01  4.526205556486E-01
     24 T  25 MN    1.463659365206E-01 -5.000000000000E-01 -4.737740809367E-02
     25 T   8 O    -1.171629527210E-04  2.750478598359E-01 -3.217246504986E-04
     26 T   8 O    -1.171629527210E-04 -2.750478598359E-01 -3.217246504986E-04
     27 T   8 O    -1.145953153184E-04  2.750496883804E-01  4.996786577546E-01
     28 T   8 O    -1.145953153184E-04 -2.750496883804E-01  4.996786577546E-01
     29 T   8 O     4.999171556865E-01  2.750147876843E-01  2.503908064149E-01
     30 T   8 O     4.999171556865E-01 -2.750147876843E-01  2.503908064149E-01
     31 T   8 O     4.999153883433E-01  2.750161147640E-01 -2.496094130999E-01
     32 T   8 O     4.999153883433E-01 -2.750161147640E-01 -2.496094130999E-01
     33 T   8 O     4.483635075083E-01 -5.436465795621E-17  8.123765142028E-02
     34 T   8 O     4.483598178425E-01  2.491501115623E-17 -4.187605082810E-01
     35 T   8 O    -4.480800096794E-01  5.432713145585E-17 -8.116640615827E-02
     36 T   8 O    -4.480755943305E-01 -2.495313515752E-17  4.188350984062E-01
     37 T   8 O     5.195362834259E-02  2.194876213619E-17 -1.687422179441E-01
     38 T   8 O     5.195447324440E-02 -5.733098727816E-17  3.312581081801E-01
     39 T   8 O    -5.163378567244E-02 -2.199158824512E-17  1.688256788034E-01
     40 T   8 O    -5.163161725672E-02  5.728782386641E-17 -3.311742783521E-01
     41 T   8 O     4.362280186388E-01 -5.000000000000E-01  7.807583695387E-02
     42 T   8 O     4.362318725985E-01 -5.000000000000E-01 -4.219234894018E-01
     43 T   8 O    -4.342813602095E-01 -5.000000000000E-01 -7.747198579661E-02
     44 T   8 O    -4.342865908989E-01 -5.000000000000E-01  4.225291573151E-01
     45 T   8 O     6.584556131539E-02 -5.000000000000E-01 -1.724791407415E-01
     46 T   8 O     6.585632872846E-02 -5.000000000000E-01  3.275187216814E-01
     47 T   8 O    -6.379006171350E-02 -5.000000000000E-01  1.720018221774E-01
     48 T   8 O    -6.378364462843E-02 -5.000000000000E-01 -3.279995099122E-01
     49 T   8 O     2.074728227558E-01  2.472278909277E-01  2.001988664843E-01
     50 T   8 O     2.074728227558E-01 -2.472278909277E-01  2.001988664843E-01
     51 T   8 O     2.074723088087E-01  2.472319631995E-01 -2.998007324388E-01
     52 T   8 O     2.074723088087E-01 -2.472319631995E-01 -2.998007324388E-01
     53 T   8 O    -2.067642282850E-01  2.494016894313E-01 -2.010463530049E-01
     54 T   8 O    -2.067642282850E-01 -2.494016894313E-01 -2.010463530049E-01
     55 T   8 O    -2.067642464471E-01  2.494029708943E-01  2.989569061528E-01
     56 T   8 O    -2.067642464471E-01 -2.494029708943E-01  2.989569061528E-01
     57 T   8 O     2.931851668939E-01  2.493487613195E-01 -4.887587407737E-02
     58 T   8 O     2.931851668939E-01 -2.493487613195E-01 -4.887587407737E-02
     59 T   8 O     2.931842898022E-01  2.493485141738E-01  4.511241674618E-01
     60 T   8 O     2.931842898022E-01 -2.493485141738E-01  4.511241674618E-01
     61 T   8 O    -2.925560369975E-01  2.472656086949E-01  4.988736931881E-02
     62 T   8 O    -2.925560369975E-01 -2.472656086949E-01  4.988736931881E-02
     63 T   8 O    -2.925554528302E-01  2.472618979093E-01 -4.501147507191E-01
     64 T   8 O    -2.925554528302E-01 -2.472618979093E-01 -4.501147507191E-01

 T = ATOM BELONGING TO THE ASYMMETRIC UNIT
 *******************************************************************************
 * GEOMETRY EDITING - INPUT COORDINATES ARE GIVEN IN ANGSTROM         
 *******************************************************************************

 USE OF SYMMETRY WILL BE SUBSEQUENTLY SUSPENDED

 SYMMETRY ALLOWED ELASTIC DISTORTION 1
  0.5773503  0.0000000  0.0000000
  0.0000000  0.5773503  0.0000000
  0.0000000  0.0000000  0.5773503

 SYMMETRY ALLOWED ELASTIC DISTORTION 2
  0.8164966  0.0000000  0.0000000
  0.0000000 -0.4082483  0.0000000
  0.0000000  0.0000000 -0.4082483

 SYMMETRY ALLOWED ELASTIC DISTORTION 3
  0.0000000  0.7071068  0.0000000
  0.7071068  0.0000000  0.0000000
  0.0000000  0.0000000  0.0000000

 SYMMETRY ALLOWED ELASTIC DISTORTION 4
  0.0000000  0.0000000  0.0000000
  0.0000000  0.7071068  0.0000000
  0.0000000  0.0000000 -0.7071068

 SYMMETRY ALLOWED ELASTIC DISTORTION 5
  0.0000000  0.0000000  0.7071068
  0.0000000  0.0000000  0.0000000
  0.7071068  0.0000000  0.0000000

 SYMMETRY ALLOWED ELASTIC DISTORTION 6
  0.0000000  0.0000000  0.0000000
  0.0000000  0.0000000  0.7071068
  0.0000000  0.7071068  0.0000000
 INFORMATION **** NEW DEFAULT **** FINALRUN 4 FOR GEOMETRY OPTIMIZATIONS
 INFORMATION **** NEW DEFAULT **** OPTGEOM OPTIMIZES BOTH ATOMIC COORDINATES AND CELL PARAMETERS
 INFORMATION **** NEW DEFAULT **** TOL. ON ATOMIC DISP TO REDEFINE REF. GEOMETRY: 0.8 Angs
 INFORMATION **** NEW DEFAULT **** N POINTS TO REDEFINE REF. GEOMETRY: N OF OPT DEGS OF FREEDOM
 INFORMATION **** NEW DEFAULT **** TOL. ON ENERGY TO REDEFINE REF. GEOMETRY: 10**-3*(5*N. ATOMS)
 INFORMATION **** ONELOG **** use only one log file for the optimisation
 INFORMATION **** FULLOPTG **** FULL OPTIMIZATION (ATOMS AND CELL PARAMETERS)
 INFORMATION **** OPTGEOM ****  PRINTHESS

 IMPORTANT INFORMATION:
 THE COORDINATE SYSTEM ADOPTED IN THE OPTIMIZATION IS NOT IN
 GENERAL HOMOGENEOUS UNITS. FOR THIS REASON THE GRADIENT AND 
 HESSIAN MATRIX IN TERMS OF THIS SYSTEM ARE GIVEN WITHOUT
 UNITS. FOR MORE DETAILS SEE THE MANUAL.

 *******************************************************************************
 COMBINED CELL/ATOM OPTIMIZATION CONTROL

 INITIAL TRUST RADIUS         0.50000 MAXIMUM TRUST RADIUS               4.00000
 MAXIMUM GRADIENT COMPONENT   0.00045 MAXIMUM DISPLACEMENT COMPONENT     0.00180
 R.M.S. OF GRADIENT COMPONENT 0.00030 R.M.S. OF DISPLACEMENT COMPONENTS  0.00120
 THRESHOLD ON ENERGY CHANGE 0.100E-06 EXTRAPOLATING POLYNOMIAL ORDER           2
 MAXIMUM ALLOWED NUMBER OF STEPS   -1 SORTING OF ENERGY POINTS:               NO
 ANALYTICAL  GRADIENT                 HESSIAN UPDATING                      BFGS
 STEP SIZE NUMERICAL GRADIENT 0.00100
 INITIAL HESSIAN MATRIX: SCHLEGEL MODEL 2
 *******************************************************************************


 GCALCO - MAX INDICES DIRECT LATTICE VECTOR    15    23     9
 NO.OF VECTORS CREATED 6999 STARS 1830 RMAX   200.07045 BOHR

 GEOMETRY FOR WAVE FUNCTION - DIMENSIONALITY OF THE SYSTEM    3
 (NON PERIODIC DIRECTION: LATTICE PARAMETER FORMALLY SET TO 500)
 *******************************************************************************
 LATTICE PARAMETERS (ANGSTROMS AND DEGREES) - BOHR = 0.5291772083 ANGSTROM
 PRIMITIVE CELL - CENTRING CODE 1/0 VOLUME=   709.486521 - DENSITY  6.512 g/cm^3
         A              B              C           ALPHA      BETA       GAMMA 
     8.56919749     5.64333549    14.67128413    90.000000  90.002853  90.000000
 *******************************************************************************
 ATOMS IN THE ASYMMETRIC UNIT   64 - ATOMS IN THE UNIT CELL:   64
     ATOM                 X/A                 Y/B                 Z/C    
 *******************************************************************************
      1 T 264 GD    1.737765373176E-01 -2.716461402311E-17  6.991953244431E-02
      2 T 264 GD    1.737769212566E-01  5.211489306577E-17 -4.300799824364E-01
      3 T 264 GD   -1.739458367426E-01  2.718393618576E-17 -6.994260375686E-02
      4 T 264 GD   -1.739435977607E-01 -5.209616899630E-17  4.300591526468E-01
      5 T 264 GD   -3.261925129087E-01  1.613978485415E-18  1.801606963915E-01
      6 T 264 GD   -3.261951173712E-01  8.089394756594E-17 -3.198399883832E-01
      7 T 264 GD    3.260352082812E-01 -8.090493471736E-17  3.200025921389E-01
      8 T 264 GD    3.260373237376E-01 -1.625728943000E-18 -1.799960327884E-01
      9 T  25 MN    4.996338796304E-01  2.572658793664E-01 -6.645515622020E-05
     10 T  25 MN    4.996338796304E-01 -2.572658793664E-01 -6.645515622020E-05
     11 T  25 MN    4.996320831876E-01  2.572631395903E-01  4.999332024413E-01
     12 T  25 MN    4.996320831876E-01 -2.572631395903E-01  4.999332024413E-01
     13 T  25 MN   -3.435882451510E-04  2.572590926113E-01  2.501472528751E-01
     14 T  25 MN   -3.435882451510E-04 -2.572590926113E-01  2.501472528751E-01
     15 T  25 MN   -3.430544033958E-04  2.572587113090E-01 -2.498533222769E-01
     16 T  25 MN   -3.430544033958E-04 -2.572587113090E-01 -2.498533222769E-01
     17 T  25 MN    3.525594405387E-01 -5.000000000000E-01  2.028257939146E-01
     18 T  25 MN    3.525587265929E-01 -5.000000000000E-01 -2.971749311818E-01
     19 T  25 MN   -3.536465972123E-01 -5.000000000000E-01  2.974415179135E-01
     20 T  25 MN   -3.536450900321E-01 -5.000000000000E-01 -2.025622402619E-01
     21 T  25 MN   -1.474528450223E-01 -5.000000000000E-01  4.728557642233E-02
     22 T  25 MN   -1.474499768967E-01 -5.000000000000E-01 -4.527159759218E-01
     23 T  25 MN    1.463674766056E-01 -5.000000000000E-01  4.526205556486E-01
     24 T  25 MN    1.463659365206E-01 -5.000000000000E-01 -4.737740809367E-02
     25 T   8 O    -1.171629527210E-04  2.750478598359E-01 -3.217246504986E-04
     26 T   8 O    -1.171629527210E-04 -2.750478598359E-01 -3.217246504986E-04
     27 T   8 O    -1.145953153184E-04  2.750496883804E-01  4.996786577546E-01
     28 T   8 O    -1.145953153184E-04 -2.750496883804E-01  4.996786577546E-01
     29 T   8 O     4.999171556865E-01  2.750147876843E-01  2.503908064149E-01
     30 T   8 O     4.999171556865E-01 -2.750147876843E-01  2.503908064149E-01
     31 T   8 O     4.999153883433E-01  2.750161147640E-01 -2.496094130999E-01
     32 T   8 O     4.999153883433E-01 -2.750161147640E-01 -2.496094130999E-01
     33 T   8 O     4.483635075083E-01 -5.436465795621E-17  8.123765142028E-02
     34 T   8 O     4.483598178425E-01  2.491501115623E-17 -4.187605082810E-01
     35 T   8 O    -4.480800096794E-01  5.432713145585E-17 -8.116640615827E-02
     36 T   8 O    -4.480755943305E-01 -2.495313515752E-17  4.188350984062E-01
     37 T   8 O     5.195362834259E-02  2.194876213619E-17 -1.687422179441E-01
     38 T   8 O     5.195447324440E-02 -5.733098727816E-17  3.312581081801E-01
     39 T   8 O    -5.163378567244E-02 -2.199158824512E-17  1.688256788034E-01
     40 T   8 O    -5.163161725672E-02  5.728782386641E-17 -3.311742783521E-01
     41 T   8 O     4.362280186388E-01 -5.000000000000E-01  7.807583695387E-02
     42 T   8 O     4.362318725985E-01 -5.000000000000E-01 -4.219234894018E-01
     43 T   8 O    -4.342813602095E-01 -5.000000000000E-01 -7.747198579661E-02
     44 T   8 O    -4.342865908989E-01 -5.000000000000E-01  4.225291573151E-01
     45 T   8 O     6.584556131539E-02 -5.000000000000E-01 -1.724791407415E-01
     46 T   8 O     6.585632872846E-02 -5.000000000000E-01  3.275187216814E-01
     47 T   8 O    -6.379006171350E-02 -5.000000000000E-01  1.720018221774E-01
     48 T   8 O    -6.378364462843E-02 -5.000000000000E-01 -3.279995099122E-01
     49 T   8 O     2.074728227558E-01  2.472278909277E-01  2.001988664843E-01
     50 T   8 O     2.074728227558E-01 -2.472278909277E-01  2.001988664843E-01
     51 T   8 O     2.074723088087E-01  2.472319631995E-01 -2.998007324388E-01
     52 T   8 O     2.074723088087E-01 -2.472319631995E-01 -2.998007324388E-01
     53 T   8 O    -2.067642282850E-01  2.494016894313E-01 -2.010463530049E-01
     54 T   8 O    -2.067642282850E-01 -2.494016894313E-01 -2.010463530049E-01
     55 T   8 O    -2.067642464471E-01  2.494029708943E-01  2.989569061528E-01
     56 T   8 O    -2.067642464471E-01 -2.494029708943E-01  2.989569061528E-01
     57 T   8 O     2.931851668939E-01  2.493487613195E-01 -4.887587407737E-02
     58 T   8 O     2.931851668939E-01 -2.493487613195E-01 -4.887587407737E-02
     59 T   8 O     2.931842898022E-01  2.493485141738E-01  4.511241674618E-01
     60 T   8 O     2.931842898022E-01 -2.493485141738E-01  4.511241674618E-01
     61 T   8 O    -2.925560369975E-01  2.472656086949E-01  4.988736931881E-02
     62 T   8 O    -2.925560369975E-01 -2.472656086949E-01  4.988736931881E-02
     63 T   8 O    -2.925554528302E-01  2.472618979093E-01 -4.501147507191E-01
     64 T   8 O    -2.925554528302E-01 -2.472618979093E-01 -4.501147507191E-01

 T = ATOM BELONGING TO THE ASYMMETRIC UNIT

 ****    1 SYMMOPS - TRANSLATORS IN FRACTIONAL UNITS
 **** MATRICES AND TRANSLATORS IN THE CRYSTALLOGRAPHIC REFERENCE FRAME
   V INV                    ROTATION MATRICES                   TRANSLATORS
   1   1  1.00  0.00  0.00  0.00  1.00  0.00  0.00  0.00  1.00  0.00  0.00  0.00

 DIRECT LATTICE VECTORS CARTESIAN COMPONENTS (ANGSTROM)
          X                    Y                    Z
   0.856919644041E+01   0.522135069486E-15  -0.424830741183E-02
   0.119756189693E-17   0.564333549406E+01  -0.444692204101E-18
   0.654308456520E-02   0.894802981721E-15   0.146712826727E+02


 CARTESIAN COORDINATES - PRIMITIVE CELL
 *******************************************************************************
 *      ATOM          X(ANGSTROM)         Y(ANGSTROM)         Z(ANGSTROM)
 *******************************************************************************
    1   264 GD    1.489582774422E+00  1.304522536131E-32  1.025070968682E+00
    2   264 GD    1.486314525363E+00  0.000000000000E+00 -6.310563251977E+00
    3   264 GD   -1.491033685410E+00 -1.304522536131E-32 -1.025408735194E+00
    4   264 GD   -1.487742945359E+00  5.218090144523E-32  6.310258360339E+00
    5   264 GD   -2.794028913834E+00  2.609045072262E-32  2.644574269340E+00
    6   264 GD   -2.797322778748E+00 -5.218090144523E-32 -4.691077102468E+00
    7   264 GD    2.795953550273E+00  0.000000000000E+00  4.693463387474E+00
    8   264 GD    2.792700144749E+00  0.000000000000E+00 -2.642157783782E+00
    9    25 MN    4.281460428015E+00  1.451837668439E+00 -3.097580696000E-03
   10    25 MN    4.281460428015E+00 -1.451837668439E+00 -3.097580696000E-03
   11    25 MN    4.284716573986E+00  1.451822206963E+00  7.332538739802E+00
   12    25 MN    4.284716573986E+00 -1.451822206963E+00  7.332538739802E+00
   13    25 MN   -1.307540538000E-03  1.451799368503E+00  3.669982516399E+00
   14    25 MN   -1.307540538000E-03 -1.451799368503E+00  3.669982516399E+00
   15    25 MN   -4.574511989000E-03  1.451797216686E+00 -3.665667260437E+00
   16    25 MN   -4.574511989000E-03 -1.451797216686E+00 -3.665667260437E+00
   17    25 MN    3.022478209219E+00  2.821667747030E+00  2.974216774952E+00
   18    25 MN    3.019200544250E+00  2.821667747030E+00 -4.361435196459E+00
   19    25 MN   -3.028520976990E+00  2.821667747030E+00  4.365350987366E+00
   20    25 MN   -3.031779628539E+00  2.821667747030E+00 -2.970345492641E+00
   21    25 MN   -1.263243001168E+00  2.821667747030E+00  6.943664830480E-01
   22    25 MN   -1.266489976076E+00  2.821667747030E+00 -6.641297640366E+00
   23    25 MN    1.257213194092E+00  2.821667747030E+00  6.639902301359E+00
   24    25 MN    1.253928467842E+00  2.821667747030E+00 -6.957091539350E-01
   25     8 O    -1.006097429000E-03  1.552187349977E+00 -4.719615546000E-03
   26     8 O    -1.006097429000E-03 -1.552187349977E+00 -4.719615546000E-03
   27     8 O     2.287449945000E-03  1.552197669067E+00  7.330927320269E+00
   28     8 O     2.287449945000E-03 -1.552197669067E+00  7.330927320269E+00
   29     8 O     4.285526639229E+00  1.552000712730E+00  3.671430497800E+00
   30     8 O     4.285526639229E+00 -1.552000712730E+00  3.671430497800E+00
   31     8 O     4.282239950799E+00  1.552008201886E+00 -3.664214051605E+00
   32     8 O     4.282239950799E+00 -1.552008201886E+00 -3.664214051605E+00
   33     8 O     3.842646517373E+00  5.218090144523E-32  1.189955761641E+00
   34     8 O     3.839343369661E+00  0.000000000000E+00 -6.145658559491E+00
   35     8 O    -3.840216702623E+00 -3.913567608392E-32 -1.188911706649E+00
   36     8 O    -3.836907314504E+00  0.000000000000E+00  6.146751684834E+00
   37     8 O     4.440967524580E-01  0.000000000000E+00 -2.475885493260E+00
   38     8 O     4.473755370040E-01  0.000000000000E+00  4.859760624160E+00
   39     8 O    -4.413554116960E-01  0.000000000000E+00  2.477108612329E+00
   40     8 O    -4.446083721180E-01 -5.218090144523E-32 -4.858532104649E+00
   41     8 O     3.738634441330E+00  2.821667747030E+00  1.143619443133E+00
   42     8 O     3.735395928793E+00  2.821667747030E+00 -6.192012026364E+00
   43     8 O    -3.721949191798E+00  2.821667747030E+00 -1.134768442116E+00
   44     8 O    -3.718722464841E+00  2.821667747030E+00  6.200889687371E+00
   45     8 O     5.631150040370E-01  2.821667747030E+00 -2.530769961149E+00
   46     8 O     5.664788004110E-01  2.821667747030E+00  4.804839968459E+00
   47     8 O    -5.455041473010E-01  2.821667747030E+00  2.523758353176E+00
   48     8 O    -5.487207090370E-01  2.821667747030E+00 -4.811902553898E+00
   49     8 O     1.779185292354E+00  1.395189931994E+00  2.936292752614E+00
   50     8 O     1.779185292354E+00 -1.395189931994E+00  2.936292752614E+00
   51     8 O     1.775909348582E+00  1.395212913190E+00 -4.399342697240E+00
   52     8 O     1.775909348582E+00 -1.395212913190E+00 -4.399342697240E+00
   53     8 O    -1.773118752313E+00  1.407457406246E+00 -2.948729477247E+00
   54     8 O    -1.773118752313E+00 -1.407457406246E+00 -2.948729477247E+00
   55     8 O    -1.769847344340E+00  1.407464637972E+00  4.386959675204E+00
   56     8 O    -1.769847344340E+00 -1.407464637972E+00  4.386959675204E+00
   57     8 O     2.512041489551E+00  1.407158715154E+00 -7.183173051820E-01
   58     8 O     2.512041489551E+00 -1.407158715154E+00 -7.183173051820E-01
   59     8 O     2.515305516134E+00  1.407157320428E+00  6.617324644327E+00
   60     8 O     2.515305516134E+00 -1.407157320428E+00  6.617324644327E+00
   61     8 O    -2.506643733583E+00  1.395402786008E+00  7.331545650540E-01
   62     8 O    -2.506643733583E+00 -1.395402786008E+00  7.331545650540E-01
   63     8 O    -2.509910283893E+00  1.395381844800E+00 -6.602517877453E+00
   64     8 O    -2.509910283893E+00 -1.395381844800E+00 -6.602517877453E+00

 *******************************************************************************
 *** PSEUDOPOTENTIAL INFORMATION ***
 *******************************************************************************

 ATOMIC NUMBER  64, NUCLEAR CHARGE 11.000, GIVEN IN INPUT       PSEUDOPOTENTIAL
   TYPE       EXPONENT      COEFF.    N      EXPONENT      COEFF.    N
  P0 TMS     5.0260000  139.6016190   0     2.5130000   -6.8796940   0
  P1 TMS     4.3022000   79.8738240   0     2.1511000    0.9384190   0
  P2 TMS     3.0011000   32.7097290   0     1.5055000    1.2419520   0
  P3 TMS     6.2049000  -74.2487900   0

 *******************************************************************************
 LOCAL ATOMIC FUNCTIONS BASIS SET
 *******************************************************************************
   ATOM   X(AU)   Y(AU)   Z(AU)  N. TYPE  EXPONENT  S COEF   P COEF   D/F/G COEF
 *******************************************************************************
   1 GD   2.815   0.000   1.937
                                  1 S  
                                         4.472E+00 4.479E-01 0.000E+00 0.000E+00
                                         2.631E+00-1.294E+00 0.000E+00 0.000E+00
                                  2 S  
                                         1.438E+00 1.000E+00 0.000E+00 0.000E+00
                                  3 S  
                                         4.629E-01 1.000E+00 0.000E+00 0.000E+00
                           4-     6 P  
                                         5.469E+00 0.000E+00 6.817E-02 0.000E+00
                                         3.217E+00 0.000E+00-2.489E-01 0.000E+00
                           7-     9 P  
                                         8.160E-01 0.000E+00 1.000E+00 0.000E+00
                          10-    12 P  
                                         3.615E-01 0.000E+00 1.000E+00 0.000E+00
                          13-    16 SP 
                                         1.500E-01 1.000E+00 1.000E+00 0.000E+00
                          17-    21 D  
                                         2.231E+00 0.000E+00 0.000E+00-4.216E-02
                                         1.025E+00 0.000E+00 0.000E+00 1.675E-01
                          22-    26 D  
                                         4.088E-01 0.000E+00 0.000E+00 1.000E+00
                          27-    31 D  
                                         1.500E-01 0.000E+00 0.000E+00 1.000E+00
   2 GD   2.809   0.000 -11.925
   3 GD  -2.818  -0.000  -1.938
   4 GD  -2.811   0.000  11.925
   5 GD  -5.280   0.000   4.998
   6 GD  -5.286  -0.000  -8.865
   7 GD   5.284   0.000   8.869
   8 GD   5.277   0.000  -4.993
   9 MN   8.091   2.744  -0.006
                                249 S  
                                         2.772E+05 2.284E-04 0.000E+00 0.000E+00
                                         4.155E+04 1.771E-03 0.000E+00 0.000E+00
                                         9.456E+03 9.208E-03 0.000E+00 0.000E+00
                                         2.677E+03 3.742E-02 0.000E+00 0.000E+00
                                         8.715E+02 1.216E-01 0.000E+00 0.000E+00
                                         3.130E+02 2.882E-01 0.000E+00 0.000E+00
                                         1.214E+02 4.104E-01 0.000E+00 0.000E+00
                                         4.792E+01 2.137E-01 0.000E+00 0.000E+00
                                250 S  
                                         3.037E+02-2.459E-02 0.000E+00 0.000E+00
                                         9.388E+01-1.160E-01 0.000E+00 0.000E+00
                                         1.488E+01 5.511E-01 0.000E+00 0.000E+00
                                         6.287E+00 5.371E-01 0.000E+00 0.000E+00
                                251 S  
                                         9.486E+00-2.289E-01 0.000E+00 0.000E+00
                                         1.570E+00 7.120E-01 0.000E+00 0.000E+00
                                252 S  
                                         2.188E+00 1.000E+00 0.000E+00 0.000E+00
                                253 S  
                                         6.599E-01 1.000E+00 0.000E+00 0.000E+00
                                254 S  
                                         1.012E-01 1.000E+00 0.000E+00 0.000E+00
                         255-   257 P  
                                         1.445E+03 0.000E+00 2.399E-03 0.000E+00
                                         3.421E+02 0.000E+00 1.937E-02 0.000E+00
                                         1.096E+02 0.000E+00 9.024E-02 0.000E+00
                                         4.075E+01 0.000E+00 2.575E-01 0.000E+00
                                         1.619E+01 0.000E+00 4.127E-01 0.000E+00
                                         6.548E+00 0.000E+00 2.409E-01 0.000E+00
                         258-   260 P  
                                         2.536E+01 0.000E+00-2.871E-02 0.000E+00
                                         3.483E+00 0.000E+00 5.521E-01 0.000E+00
                                         1.386E+00 0.000E+00 9.723E-01 0.000E+00
                         261-   263 P  
                                         1.185E+00 0.000E+00 1.000E+00 0.000E+00
                         264-   266 P  
                                         5.354E-01 0.000E+00 1.000E+00 0.000E+00
                         267-   271 D  
                                         5.656E+01 0.000E+00 0.000E+00 1.154E-02
                                         1.628E+01 0.000E+00 0.000E+00 7.030E-02
                                         5.696E+00 0.000E+00 0.000E+00 2.245E-01
                                         2.141E+00 0.000E+00 0.000E+00 3.970E-01
                         272-   276 D  
                                         7.529E-01 0.000E+00 0.000E+00 1.000E+00
                         277-   281 D  
                                         2.284E-01 0.000E+00 0.000E+00 1.000E+00
                         282-   288 F  
                                         1.326E+00 0.000E+00 0.000E+00 1.000E+00
  10 MN   8.091  -2.744  -0.006
  11 MN   8.097   2.744  13.856
  12 MN   8.097  -2.744  13.856
  13 MN  -0.002   2.744   6.935
  14 MN  -0.002  -2.744   6.935
  15 MN  -0.009   2.743  -6.927
  16 MN  -0.009  -2.743  -6.927
  17 MN   5.712   5.332   5.620
  18 MN   5.705   5.332  -8.242
  19 MN  -5.723   5.332   8.249
  20 MN  -5.729   5.332  -5.613
  21 MN  -2.387   5.332   1.312
  22 MN  -2.393   5.332 -12.550
  23 MN   2.376   5.332  12.548
  24 MN   2.370   5.332  -1.315
  25 O   -0.002   2.933  -0.009
                                889 S  
                                         2.703E+04 2.173E-04 0.000E+00 0.000E+00
                                         4.052E+03 1.684E-03 0.000E+00 0.000E+00
                                         9.223E+02 8.740E-03 0.000E+00 0.000E+00
                                         2.612E+02 3.524E-02 0.000E+00 0.000E+00
                                         8.535E+01 1.115E-01 0.000E+00 0.000E+00
                                         3.104E+01 2.559E-01 0.000E+00 0.000E+00
                                890 S  
                                         1.226E+01 3.977E-01 0.000E+00 0.000E+00
                                         4.999E+00 2.463E-01 0.000E+00 0.000E+00
                                891 S  
                                         1.099E+00 1.000E+00 0.000E+00 0.000E+00
                                892 S  
                                         3.566E-01 1.000E+00 0.000E+00 0.000E+00
                         893-   895 P  
                                         6.327E+01 0.000E+00 6.069E-03 0.000E+00
                                         1.463E+01 0.000E+00 4.191E-02 0.000E+00
                                         4.450E+00 0.000E+00 1.615E-01 0.000E+00
                                         1.528E+00 0.000E+00 3.571E-01 0.000E+00
                         896-   898 P  
                                         5.490E-01 0.000E+00 1.000E+00 0.000E+00
                         899-   901 P  
                                         1.859E-01 0.000E+00 1.000E+00 0.000E+00
                         902-   906 D  
                                         2.535E-01 0.000E+00 0.000E+00 1.000E+00
  26 O   -0.002  -2.933  -0.009
  27 O    0.004   2.933  13.853
  28 O    0.004  -2.933  13.853
  29 O    8.098   2.933   6.938
  30 O    8.098  -2.933   6.938
  31 O    8.092   2.933  -6.924
  32 O    8.092  -2.933  -6.924
  33 O    7.262   0.000   2.249
  34 O    7.255   0.000 -11.614
  35 O   -7.257  -0.000  -2.247
  36 O   -7.251   0.000  11.616
  37 O    0.839   0.000  -4.679
  38 O    0.845   0.000   9.184
  39 O   -0.834   0.000   4.681
  40 O   -0.840  -0.000  -9.181
  41 O    7.065   5.332   2.161
  42 O    7.059   5.332 -11.701
  43 O   -7.033   5.332  -2.144
  44 O   -7.027   5.332  11.718
  45 O    1.064   5.332  -4.782
  46 O    1.070   5.332   9.080
  47 O   -1.031   5.332   4.769
  48 O   -1.037   5.332  -9.093
  49 O    3.362   2.637   5.549
  50 O    3.362  -2.637   5.549
  51 O    3.356   2.637  -8.314
  52 O    3.356  -2.637  -8.314
  53 O   -3.351   2.660  -5.572
  54 O   -3.351  -2.660  -5.572
  55 O   -3.345   2.660   8.290
  56 O   -3.345  -2.660   8.290
  57 O    4.747   2.659  -1.357
  58 O    4.747  -2.659  -1.357
  59 O    4.753   2.659  12.505
  60 O    4.753  -2.659  12.505
  61 O   -4.737   2.637   1.385
  62 O   -4.737  -2.637   1.385
  63 O   -4.743   2.637 -12.477
  64 O   -4.743  -2.637 -12.477
 INFORMATION **** SET_MPP **** PCRYSTAL CALCULATION
 INFORMATION **** READM2 **** NEW DEFAULT: FOCK/KS MATRIX MIXING SET TO 30 %
 INFORMATION **** READM2 **** NEW DEFAULT: FULL DIRECT SCF MODE
 INFORMATION **** READM2 **** NEW DEFAULT: COULOMB BIPOLAR BUFFER SET TO 32 Mb
 INFORMATION **** READM2 **** NEW DEFAULT: EXCHANGE BIPOLAR BUFFER SET TO 32 Mb

 *******************************************************************************
 NEW DEFAULT: DFT INTEGRATION GRID INCREASED TO XLGRID
 NEW DEFAULT: DIIS ACCELERATOR ACTIVE
 USE KEYWORD NODIIS TO TURN IT OFF
 *******************************************************************************

 INFORMATION **** TOLDEE **** SCF TOL ON TOTAL ENERGY SET TO           8
 INFORMATION **** TOLINTEG **** COULOMB AND EXCHANGE SERIES TOLERANCES MODIFIED
 INFORMATION **** TOLPSEUD **** PSEUDO TOLERANCE (5) MODIFIED- SET TO           8
 INFORMATION **** READM2 **** NO BIPOLAR EXPANSION
 INFORMATION **** DIIS **** DIIS FOR SCF ACTIVE
 INFORMATION **** DIIS **** LEVEL SHIFTER DISABLED
 INFORMATION **** BIPOSIZE **** COULOMB BIPOLAR BUFFER SET TO    40000000
 INFORMATION **** EXCHSIZE **** EXCHANGE BIPOLAR BUFFER SIZE SET TO    20000000
 INFORMATION **** MAXCYCLE **** MAX NUMBER OF SCF CYCLES SET TO         100
 INFORMATION **** PPAN ****  MULLIKEN POPULATION ANALYSIS AT THE END OF SCF
 SSSSSSSSSSSSSSSSSSSSSSSSSSSSSSSSSSSSSSSSSSSSSSSSSSSSSSSSSSSSSSSSSSSSSSSSSSSSSS
 ATOMIC SPINS SET TO (ATOM, AT. N., SPIN)
   1 264 0   2 264 0   3 264 0   4 264 0   5 264 0   6 264 0   7 264 0   8 264 0
   9  25 1  10  25 1  11  25-1  12  25-1  13  25-1  14  25-1  15  25 1  16  25 1
  17  25-1  18  25 1  19  25 1  20  25-1  21  25 1  22  25-1  23  25 1  24  25-1
  25   8 0  26   8 0  27   8 0  28   8 0  29   8 0  30   8 0  31   8 0  32   8 0
  33   8 0  34   8 0  35   8 0  36   8 0  37   8 0  38   8 0  39   8 0  40   8 0
  41   8 0  42   8 0  43   8 0  44   8 0  45   8 0  46   8 0  47   8 0  48   8 0
  49   8 0  50   8 0  51   8 0  52   8 0  53   8 0  54   8 0  55   8 0  56   8 0
  57   8 0  58   8 0  59   8 0  60   8 0  61   8 0  62   8 0  63   8 0  64   8 0
 INFORMATION **** SAVEWF **** not fully tested
 *******************************************************************************
 N. OF ATOMS PER CELL        64  COULOMB OVERLAP TOL         (T1) 10**   -8
 NUMBER OF SHELLS           624  COULOMB PENETRATION TOL     (T2) 10**   -8
 NUMBER OF AO              1608  EXCHANGE OVERLAP TOL        (T3) 10**   20
 N. OF ELECTRONS PER CELL   808  EXCHANGE PSEUDO OVP (F(G))  (T4) 10**   20
 CORE ELECTRONS PER CELL    368  EXCHANGE PSEUDO OVP (P(G))  (T5) 10**   20
 N. OF SYMMETRY OPERATORS     1  POLE ORDER IN MONO ZONE                  4
 *******************************************************************************
 TYPE OF CALCULATION :  UNRESTRICTED OPEN SHELL
 KOHN-SHAM HAMILTONIAN

 (EXCHANGE)[CORRELATION] FUNCTIONAL:(PBEsol GGA)[PBEsol]


 SPIN POLARIZED DFT SELECTED
 CORE  PSEUDO POTENTIAL         TOL. ON PSEUDO              (TP) 10**- 8

 CAPPA:IS1  8;IS2 12;IS3  4; K PTS MONK NET 196; SYMMOPS:K SPACE   2;G SPACE   1

 *******************************************************************************
 MAX NUMBER OF SCF CYCLES     100  CONVERGENCE ON DELTAP        10**-18
 WEIGHT OF F(I) IN F(I+1)      90% CONVERGENCE ON ENERGY        10**- 8
 SHRINK. FACT.(MONKH.)    8 12  4  NUMBER OF K POINTS IN THE IBZ    196
 SHRINKING FACTOR(GILAT NET)   24  NUMBER OF K POINTS(GILAT NET)   5188
 *******************************************************************************
 *** K POINTS COORDINATES (OBLIQUE COORDINATES IN UNITS OF IS =  8)
   1-R(  0  0  0)   2-C(  1  0  0)   3-C(  2  0  0)   4-C(  3  0  0)
   5-R(  4  0  0)   6-C(  0  1  0)   7-C(  1  1  0)   8-C(  2  1  0)
   9-C(  3  1  0)  10-C(  4  1  0)  11-C(  5  1  0)  12-C(  6  1  0)
  13-C(  7  1  0)  14-C(  0  2  0)  15-C(  1  2  0)  16-C(  2  2  0)
  17-C(  3  2  0)  18-C(  4  2  0)  19-C(  5  2  0)  20-C(  6  2  0)
  21-C(  7  2  0)  22-C(  0  3  0)  23-C(  1  3  0)  24-C(  2  3  0)
  25-C(  3  3  0)  26-C(  4  3  0)  27-C(  5  3  0)  28-C(  6  3  0)
  29-C(  7  3  0)  30-C(  0  4  0)  31-C(  1  4  0)  32-C(  2  4  0)
  33-C(  3  4  0)  34-C(  4  4  0)  35-C(  5  4  0)  36-C(  6  4  0)
  37-C(  7  4  0)  38-C(  0  5  0)  39-C(  1  5  0)  40-C(  2  5  0)
  41-C(  3  5  0)  42-C(  4  5  0)  43-C(  5  5  0)  44-C(  6  5  0)
  45-C(  7  5  0)  46-R(  0  6  0)  47-C(  1  6  0)  48-C(  2  6  0)
  49-C(  3  6  0)  50-R(  4  6  0)  51-C(  0  0  1)  52-C(  1  0  1)
  53-C(  2  0  1)  54-C(  3  0  1)  55-C(  4  0  1)  56-C(  5  0  1)
  57-C(  6  0  1)  58-C(  7  0  1)  59-C(  0  1  1)  60-C(  1  1  1)
  61-C(  2  1  1)  62-C(  3  1  1)  63-C(  4  1  1)  64-C(  5  1  1)
  65-C(  6  1  1)  66-C(  7  1  1)  67-C(  0  2  1)  68-C(  1  2  1)
  69-C(  2  2  1)  70-C(  3  2  1)  71-C(  4  2  1)  72-C(  5  2  1)
  73-C(  6  2  1)  74-C(  7  2  1)  75-C(  0  3  1)  76-C(  1  3  1)
  77-C(  2  3  1)  78-C(  3  3  1)  79-C(  4  3  1)  80-C(  5  3  1)
  81-C(  6  3  1)  82-C(  7  3  1)  83-C(  0  4  1)  84-C(  1  4  1)
  85-C(  2  4  1)  86-C(  3  4  1)  87-C(  4  4  1)  88-C(  5  4  1)
  89-C(  6  4  1)  90-C(  7  4  1)  91-C(  0  5  1)  92-C(  1  5  1)
  93-C(  2  5  1)  94-C(  3  5  1)  95-C(  4  5  1)  96-C(  5  5  1)
  97-C(  6  5  1)  98-C(  7  5  1)  99-C(  0  6  1) 100-C(  1  6  1)
 101-C(  2  6  1) 102-C(  3  6  1) 103-C(  4  6  1) 104-C(  5  6  1)
 105-C(  6  6  1) 106-C(  7  6  1) 107-C(  0  7  1) 108-C(  1  7  1)
 109-C(  2  7  1) 110-C(  3  7  1) 111-C(  4  7  1) 112-C(  5  7  1)
 113-C(  6  7  1) 114-C(  7  7  1) 115-C(  0  8  1) 116-C(  1  8  1)
 117-C(  2  8  1) 118-C(  3  8  1) 119-C(  4  8  1) 120-C(  5  8  1)
 121-C(  6  8  1) 122-C(  7  8  1) 123-C(  0  9  1) 124-C(  1  9  1)
 125-C(  2  9  1) 126-C(  3  9  1) 127-C(  4  9  1) 128-C(  5  9  1)
 129-C(  6  9  1) 130-C(  7  9  1) 131-C(  0 10  1) 132-C(  1 10  1)
 133-C(  2 10  1) 134-C(  3 10  1) 135-C(  4 10  1) 136-C(  5 10  1)
 137-C(  6 10  1) 138-C(  7 10  1) 139-C(  0 11  1) 140-C(  1 11  1)
 141-C(  2 11  1) 142-C(  3 11  1) 143-C(  4 11  1) 144-C(  5 11  1)
 145-C(  6 11  1) 146-C(  7 11  1) 147-R(  0  0  2) 148-C(  1  0  2)
 149-C(  2  0  2) 150-C(  3  0  2) 151-R(  4  0  2) 152-C(  0  1  2)
 153-C(  1  1  2) 154-C(  2  1  2) 155-C(  3  1  2) 156-C(  4  1  2)
 157-C(  5  1  2) 158-C(  6  1  2) 159-C(  7  1  2) 160-C(  0  2  2)
 161-C(  1  2  2) 162-C(  2  2  2) 163-C(  3  2  2) 164-C(  4  2  2)
 165-C(  5  2  2) 166-C(  6  2  2) 167-C(  7  2  2) 168-C(  0  3  2)
 169-C(  1  3  2) 170-C(  2  3  2) 171-C(  3  3  2) 172-C(  4  3  2)
 173-C(  5  3  2) 174-C(  6  3  2) 175-C(  7  3  2) 176-C(  0  4  2)
 177-C(  1  4  2) 178-C(  2  4  2) 179-C(  3  4  2) 180-C(  4  4  2)
 181-C(  5  4  2) 182-C(  6  4  2) 183-C(  7  4  2) 184-C(  0  5  2)
 185-C(  1  5  2) 186-C(  2  5  2) 187-C(  3  5  2) 188-C(  4  5  2)
 189-C(  5  5  2) 190-C(  6  5  2) 191-C(  7  5  2) 192-R(  0  6  2)
 193-C(  1  6  2) 194-C(  2  6  2) 195-C(  3  6  2) 196-R(  4  6  2)

 DIRECT LATTICE VECTORS COMPON. (A.U.)     RECIP. LATTICE VECTORS COMPON. (A.U.) 
        X            Y            Z              X            Y            Z
   16.1934345    0.0000000   -0.0080281      0.3880081   -0.0000000   -0.0001730
    0.0000000   10.6643586   -0.0000000     -0.0000000    0.5891761   -0.0000000
    0.0123646    0.0000000   27.7247063      0.0001124    0.0000000    0.2266276

 DISK SPACE FOR EIGENVECTORS (FTN 10)   992894976 REALS

 SYMMETRY ADAPTION OF THE BLOCH FUNCTIONS DISABLED
 TTTTTTTTTTTTTTTTTTTTTTTTTTTTTT gordsh1     TELAPSE        1.16 TCPU        0.17

 MATRIX SIZE: P(G) 1876296, F(G)  939456, P(G) IRR  943200, F(G) IRR  943200
 MAX G-VECTOR INDEX FOR 1- AND 2-ELECTRON INTEGRALS  53

 TTTTTTTTTTTTTTTTTTTTTTTTTTTTTT INPUT       TELAPSE        1.60 TCPU        0.61

 NEIGHBORS OF THE NON-EQUIVALENT ATOMS

 N = NUMBER OF NEIGHBORS AT DISTANCE R
    ATOM  N     R/ANG      R/AU   NEIGHBORS (ATOM LABELS AND CELL INDICES)
   1 GD   1     2.3588     4.4575   33 O    0 0 0
   1 GD   2     2.3839     4.5050   49 O    0 0 0   50 O    0 0 0
   1 GD   2     2.3857     4.5083   25 O    0 0 0   26 O    0 0 0
   1 GD   1     2.4160     4.5655   39 O    0 0 0
   1 GD   2     2.4627     4.6538   57 O    0 0 0   58 O    0 0 0
   1 GD   2     3.3105     6.2560    9 MN   0 0 0   10 MN   0 0 0

   2 GD   1     2.3588     4.4575   34 O    0 0 0
   2 GD   2     2.3840     4.5050   51 O    0 0 0   52 O    0 0 0
   2 GD   2     2.3857     4.5083   27 O    0 0-1   28 O    0 0-1
   2 GD   1     2.4160     4.5655   40 O    0 0 0
   2 GD   2     2.4627     4.6538   59 O    0 0-1   60 O    0 0-1
   2 GD   2     3.3105     6.2559   11 MN   0 0-1   12 MN   0 0-1

   3 GD   1     2.3549     4.4501   35 O    0 0 0
   3 GD   2     2.3814     4.5003   25 O    0 0 0   26 O    0 0 0
   3 GD   2     2.3999     4.5352   53 O    0 0 0   54 O    0 0 0
   3 GD   1     2.4184     4.5701   37 O    0 0 0
   3 GD   2     2.4640     4.6562   61 O    0 0 0   62 O    0 0 0
   3 GD   2     3.3123     6.2593   21 MN   0 0 0   21 MN   0-1 0

   4 GD   1     2.3548     4.4500   36 O    0 0 0
   4 GD   2     2.3814     4.5003   27 O    0 0 0   28 O    0 0 0
   4 GD   2     2.3999     4.5352   55 O    0 0 0   56 O    0 0 0
   4 GD   1     2.4184     4.5701   38 O    0 0 0
   4 GD   2     2.4639     4.6561   63 O    0 0 1   64 O    0 0 1
   4 GD   2     3.3123     6.2593   22 MN   0 0 1   22 MN   0-1 1

   5 GD   1     2.3586     4.4572   39 O    0 0 0
   5 GD   2     2.3840     4.5050   61 O    0 0 0   62 O    0 0 0
   5 GD   2     2.3856     4.5081   29 O   -1 0 0   30 O   -1 0 0
   5 GD   1     2.4162     4.5660   33 O   -1 0 0
   5 GD   2     2.4629     4.6542   55 O    0 0 0   56 O    0 0 0
   5 GD   2     3.3104     6.2557   13 MN   0 0 0   14 MN   0 0 0

   6 GD   1     2.3587     4.4572   40 O    0 0 0
   6 GD   2     2.3840     4.5050   63 O    0 0 0   64 O    0 0 0
   6 GD   2     2.3856     4.5081   31 O   -1 0 0   32 O   -1 0 0
   6 GD   1     2.4162     4.5660   34 O   -1 0 0
   6 GD   2     2.4629     4.6541   53 O    0 0 0   54 O    0 0 0
   6 GD   2     3.3104     6.2557   15 MN   0 0 0   16 MN   0 0 0

   7 GD   1     2.3545     4.4493   38 O    0 0 0
   7 GD   2     2.3816     4.5006   29 O    0 0 0   30 O    0 0 0
   7 GD   2     2.4000     4.5354   59 O    0 0 0   60 O    0 0 0
   7 GD   1     2.4185     4.5703   36 O    1 0 0
   7 GD   2     2.4633     4.6550   49 O    0 0 0   50 O    0 0 0
   7 GD   2     3.3119     6.2587   17 MN   0 0 0   17 MN   0-1 0

   8 GD   1     2.3545     4.4493   37 O    0 0 0
   8 GD   2     2.3816     4.5006   31 O    0 0 0   32 O    0 0 0
   8 GD   2     2.4000     4.5354   57 O    0 0 0   58 O    0 0 0
   8 GD   1     2.4184     4.5702   35 O    1 0 0
   8 GD   2     2.4634     4.6551   51 O    0 0 0   52 O    0 0 0
   8 GD   2     3.3120     6.2587   18 MN   0 0 0   18 MN   0-1 0

   9 MN   1     1.8671     3.5283   41 O    0 0 0
   9 MN   1     1.8673     3.5287   43 O    1 0 0
   9 MN   1     1.9090     3.6075   57 O    0 0 0
   9 MN   1     1.9265     3.6405   61 O    1 0 0
   9 MN   1     1.9297     3.6466   33 O    0 0 0
   9 MN   1     1.9299     3.6469   35 O    1 0 0

  10 MN   1     1.8671     3.5283   41 O    0-1 0
  10 MN   1     1.8673     3.5287   43 O    1-1 0
  10 MN   1     1.9090     3.6075   58 O    0 0 0
  10 MN   1     1.9265     3.6405   62 O    1 0 0
  10 MN   1     1.9297     3.6466   33 O    0 0 0
  10 MN   1     1.9299     3.6469   35 O    1 0 0

  11 MN   1     1.8671     3.5283   42 O    0 0 1
  11 MN   1     1.8673     3.5287   44 O    1 0 0
  11 MN   1     1.9090     3.6075   59 O    0 0 0
  11 MN   1     1.9265     3.6405   63 O    1 0 1
  11 MN   1     1.9297     3.6466   34 O    0 0 1
  11 MN   1     1.9298     3.6469   36 O    1 0 0

  12 MN   1     1.8671     3.5283   42 O    0-1 1
  12 MN   1     1.8673     3.5287   44 O    1-1 0
  12 MN   1     1.9090     3.6075   60 O    0 0 0
  12 MN   1     1.9265     3.6405   64 O    1 0 1
  12 MN   1     1.9297     3.6466   34 O    0 0 1
  12 MN   1     1.9298     3.6469   36 O    1 0 0

  13 MN   1     1.8672     3.5285   47 O    0 0 0
  13 MN   1     1.8673     3.5287   46 O    0 0 0
  13 MN   1     1.9089     3.6072   55 O    0 0 0
  13 MN   1     1.9266     3.6407   49 O    0 0 0
  13 MN   1     1.9298     3.6469   39 O    0 0 0
  13 MN   1     1.9299     3.6470   38 O    0 0 0

  14 MN   1     1.8672     3.5285   47 O    0-1 0
  14 MN   1     1.8673     3.5287   46 O    0-1 0
  14 MN   1     1.9089     3.6072   56 O    0 0 0
  14 MN   1     1.9266     3.6407   50 O    0 0 0
  14 MN   1     1.9298     3.6469   39 O    0 0 0
  14 MN   1     1.9299     3.6470   38 O    0 0 0

  15 MN   1     1.8672     3.5285   48 O    0 0 0
  15 MN   1     1.8673     3.5287   45 O    0 0 0
  15 MN   1     1.9089     3.6072   53 O    0 0 0
  15 MN   1     1.9266     3.6407   51 O    0 0 0
  15 MN   1     1.9298     3.6469   40 O    0 0 0
  15 MN   1     1.9299     3.6470   37 O    0 0 0

  16 MN   1     1.8672     3.5285   48 O    0-1 0
  16 MN   1     1.8673     3.5287   45 O    0-1 0
  16 MN   1     1.9089     3.6072   54 O    0 0 0
  16 MN   1     1.9266     3.6407   52 O    0 0 0
  16 MN   1     1.9298     3.6469   40 O    0 0 0
  16 MN   1     1.9299     3.6470   37 O    0 0 0

  17 MN   2     1.8926     3.5766   49 O    0 0 0   50 O    0 1 0
  17 MN   2     1.9218     3.6317   29 O    0 0 0   30 O    0 1 0
  17 MN   1     1.9657     3.7146   41 O    0 0 0
  17 MN   1     2.8749     5.4327   19 MN   1 0 0
  17 MN   1     3.0632     5.7886   46 O    0 0 0
  17 MN   2     3.3119     6.2587    7 GD   0 0 0    7 GD   0 1 0

  18 MN   2     1.8926     3.5765   51 O    0 0 0   52 O    0 1 0
  18 MN   2     1.9218     3.6317   31 O    0 0 0   32 O    0 1 0
  18 MN   1     1.9657     3.7146   42 O    0 0 0
  18 MN   1     2.8748     5.4327   20 MN   1 0 0
  18 MN   1     3.0633     5.7888   45 O    0 0 0
  18 MN   2     3.3120     6.2587    8 GD   0 0 0    8 GD   0 1 0

  19 MN   2     1.8933     3.5779   55 O    0 0 0   56 O    0 1 0
  19 MN   2     1.9139     3.6168   29 O   -1 0 0   30 O   -1 1 0
  19 MN   1     1.9610     3.7058   44 O    0 0 0
  19 MN   1     2.8749     5.4327   17 MN  -1 0 0
  19 MN   1     3.0914     5.8419   47 O    0 0 0
  19 MN   2     3.3133     6.2612    5 GD   0 0 0    5 GD   0 1 0

  20 MN   2     1.8933     3.5779   53 O    0 0 0   54 O    0 1 0
  20 MN   2     1.9139     3.6168   31 O   -1 0 0   32 O   -1 1 0
  20 MN   1     1.9610     3.7058   43 O    0 0 0
  20 MN   1     2.8748     5.4327   18 MN  -1 0 0
  20 MN   1     3.0914     5.8419   48 O    0 0 0
  20 MN   2     3.3133     6.2612    6 GD   0 0 0    6 GD   0 1 0

  21 MN   2     1.8926     3.5764   61 O    0 0 0   62 O    0 1 0
  21 MN   2     1.9219     3.6318   25 O    0 0 0   26 O    0 1 0
  21 MN   1     1.9652     3.7136   47 O    0 0 0
  21 MN   1     2.8755     5.4339   24 MN   0 0 0
  21 MN   1     3.0645     5.7910   43 O    0 0 0
  21 MN   2     3.3123     6.2593    3 GD   0 0 0    3 GD   0 1 0

  22 MN   2     1.8926     3.5765   63 O    0 0 0   64 O    0 1 0
  22 MN   2     1.9218     3.6318   27 O    0 0-1   28 O    0 1-1
  22 MN   1     1.9652     3.7136   48 O    0 0 0
  22 MN   1     2.8755     5.4339   23 MN   0 0-1
  22 MN   1     3.0645     5.7911   44 O    0 0-1
  22 MN   2     3.3123     6.2593    4 GD   0 0-1    4 GD   0 1-1

  23 MN   2     1.8932     3.5776   59 O    0 0 0   60 O    0 1 0
  23 MN   2     1.9141     3.6172   27 O    0 0 0   28 O    0 1 0
  23 MN   1     1.9608     3.7053   46 O    0 0 0
  23 MN   1     2.8755     5.4339   22 MN   0 0 1
  23 MN   1     3.0915     5.8420   42 O    0 0 1
  23 MN   2     3.3134     6.2614    2 GD   0 0 1    2 GD   0 1 1

  24 MN   2     1.8932     3.5776   57 O    0 0 0   58 O    0 1 0
  24 MN   2     1.9141     3.6172   25 O    0 0 0   26 O    0 1 0
  24 MN   1     1.9608     3.7053   45 O    0 0 0
  24 MN   1     2.8755     5.4339   21 MN   0 0 0
  24 MN   1     3.0914     5.8419   41 O    0 0 0
  24 MN   2     3.3134     6.2614    1 GD   0 0 0    1 GD   0 1 0

  25 O    1     1.9141     3.6172   24 MN   0 0 0
  25 O    1     1.9219     3.6318   21 MN   0 0 0
  25 O    1     2.3814     4.5003    3 GD   0 0 0
  25 O    1     2.3857     4.5083    1 GD   0 0 0
  25 O    1     2.5390     4.7979   26 O    0 1 0
  25 O    1     2.6164     4.9443   57 O    0 0 0

  26 O    1     1.9141     3.6172   24 MN   0-1 0
  26 O    1     1.9219     3.6318   21 MN   0-1 0
  26 O    1     2.3814     4.5003    3 GD   0 0 0
  26 O    1     2.3857     4.5083    1 GD   0 0 0
  26 O    1     2.5390     4.7979   25 O    0-1 0
  26 O    1     2.6164     4.9443   58 O    0 0 0

  27 O    1     1.9141     3.6172   23 MN   0 0 0
  27 O    1     1.9218     3.6318   22 MN   0 0 1
  27 O    1     2.3814     4.5003    4 GD   0 0 0
  27 O    1     2.3857     4.5083    2 GD   0 0 1
  27 O    1     2.5389     4.7979   28 O    0 1 0
  27 O    1     2.6164     4.9443   59 O    0 0 0

  28 O    1     1.9141     3.6172   23 MN   0-1 0
  28 O    1     1.9218     3.6318   22 MN   0-1 1
  28 O    1     2.3814     4.5003    4 GD   0 0 0
  28 O    1     2.3857     4.5083    2 GD   0 0 1
  28 O    1     2.5389     4.7979   27 O    0-1 0
  28 O    1     2.6164     4.9443   60 O    0 0 0

  29 O    1     1.9139     3.6168   19 MN   1 0 0
  29 O    1     1.9218     3.6317   17 MN   0 0 0
  29 O    1     2.3816     4.5006    7 GD   0 0 0
  29 O    1     2.3856     4.5081    5 GD   1 0 0
  29 O    1     2.5393     4.7986   30 O    0 1 0
  29 O    1     2.6165     4.9445   55 O    1 0 0

  30 O    1     1.9139     3.6168   19 MN   1-1 0
  30 O    1     1.9218     3.6317   17 MN   0-1 0
  30 O    1     2.3816     4.5006    7 GD   0 0 0
  30 O    1     2.3856     4.5081    5 GD   1 0 0
  30 O    1     2.5393     4.7986   29 O    0-1 0
  30 O    1     2.6165     4.9445   56 O    1 0 0

  31 O    1     1.9139     3.6168   20 MN   1 0 0
  31 O    1     1.9218     3.6317   18 MN   0 0 0
  31 O    1     2.3816     4.5006    8 GD   0 0 0
  31 O    1     2.3856     4.5081    6 GD   1 0 0
  31 O    1     2.5393     4.7986   32 O    0 1 0
  31 O    1     2.6165     4.9445   53 O    1 0 0

  32 O    1     1.9139     3.6168   20 MN   1-1 0
  32 O    1     1.9218     3.6317   18 MN   0-1 0
  32 O    1     2.3816     4.5006    8 GD   0 0 0
  32 O    1     2.3856     4.5081    6 GD   1 0 0
  32 O    1     2.5393     4.7986   31 O    0-1 0
  32 O    1     2.6165     4.9445   54 O    1 0 0

  33 O    2     1.9297     3.6466    9 MN   0 0 0   10 MN   0 0 0
  33 O    1     2.3588     4.4575    1 GD   0 0 0
  33 O    1     2.4162     4.5660    5 GD   1 0 0
  33 O    1     2.5426     4.8048   35 O    1 0 0
  33 O    2     2.6623     5.0310   61 O    1 0 0   62 O    1 0 0
  33 O    2     2.7188     5.1379   57 O    0 0 0   58 O    0 0 0

  34 O    2     1.9297     3.6466   11 MN   0 0-1   12 MN   0 0-1
  34 O    1     2.3588     4.4575    2 GD   0 0 0
  34 O    1     2.4162     4.5660    6 GD   1 0 0
  34 O    1     2.5426     4.8049   36 O    1 0-1
  34 O    2     2.6623     5.0310   63 O    1 0 0   64 O    1 0 0
  34 O    2     2.7188     5.1379   59 O    0 0-1   60 O    0 0-1

  35 O    2     1.9299     3.6469    9 MN  -1 0 0   10 MN  -1 0 0
  35 O    1     2.3549     4.4501    3 GD   0 0 0
  35 O    1     2.4184     4.5702    8 GD  -1 0 0
  35 O    1     2.5426     4.8048   33 O   -1 0 0
  35 O    2     2.6684     5.0426   57 O   -1 0 0   58 O   -1 0 0
  35 O    2     2.7240     5.1475   61 O    0 0 0   62 O    0 0 0

  36 O    2     1.9298     3.6469   11 MN  -1 0 0   12 MN  -1 0 0
  36 O    1     2.3548     4.4500    4 GD   0 0 0
  36 O    1     2.4185     4.5703    7 GD  -1 0 0
  36 O    1     2.5426     4.8049   34 O   -1 0 1
  36 O    2     2.6684     5.0426   59 O   -1 0 0   60 O   -1 0 0
  36 O    2     2.7239     5.1474   63 O    0 0 1   64 O    0 0 1

  37 O    2     1.9299     3.6470   15 MN   0 0 0   16 MN   0 0 0
  37 O    1     2.3545     4.4493    8 GD   0 0 0
  37 O    1     2.4184     4.5701    3 GD   0 0 0
  37 O    1     2.5430     4.8056   40 O    0 0 0
  37 O    2     2.6684     5.0426   53 O    0 0 0   54 O    0 0 0
  37 O    2     2.7240     5.1476   51 O    0 0 0   52 O    0 0 0

  38 O    2     1.9299     3.6470   13 MN   0 0 0   14 MN   0 0 0
  38 O    1     2.3545     4.4493    7 GD   0 0 0
  38 O    1     2.4184     4.5701    4 GD   0 0 0
  38 O    1     2.5430     4.8056   39 O    0 0 0
  38 O    2     2.6684     5.0426   55 O    0 0 0   56 O    0 0 0
  38 O    2     2.7240     5.1476   49 O    0 0 0   50 O    0 0 0

  39 O    2     1.9298     3.6469   13 MN   0 0 0   14 MN   0 0 0
  39 O    1     2.3586     4.4572    5 GD   0 0 0
  39 O    1     2.4160     4.5655    1 GD   0 0 0
  39 O    1     2.5430     4.8056   38 O    0 0 0
  39 O    2     2.6624     5.0311   49 O    0 0 0   50 O    0 0 0
  39 O    2     2.7191     5.1383   55 O    0 0 0   56 O    0 0 0

  40 O    2     1.9298     3.6469   15 MN   0 0 0   16 MN   0 0 0
  40 O    1     2.3587     4.4572    6 GD   0 0 0
  40 O    1     2.4160     4.5655    2 GD   0 0 0
  40 O    1     2.5430     4.8056   37 O    0 0 0
  40 O    2     2.6624     5.0311   51 O    0 0 0   52 O    0 0 0
  40 O    2     2.7190     5.1383   53 O    0 0 0   54 O    0 0 0

  41 O    2     1.8671     3.5283    9 MN   0 0 0   10 MN   0 1 0
  41 O    1     1.9657     3.7146   17 MN   0 0 0
  41 O    1     2.5376     4.7954   43 O    1 0 0
  41 O    2     2.6405     4.9898   57 O    0 0 0   58 O    0 1 0
  41 O    2     2.7580     5.2120   61 O    1 0 0   62 O    1 1 0
  41 O    2     2.8240     5.3365   33 O    0 0 0   33 O    0 1 0

  42 O    2     1.8671     3.5283   11 MN   0 0-1   12 MN   0 1-1
  42 O    1     1.9657     3.7146   18 MN   0 0 0
  42 O    1     2.5376     4.7953   44 O    1 0-1
  42 O    2     2.6405     4.9898   59 O    0 0-1   60 O    0 1-1
  42 O    2     2.7580     5.2119   63 O    1 0 0   64 O    1 1 0
  42 O    2     2.8240     5.3365   34 O    0 0 0   34 O    0 1 0

  43 O    2     1.8673     3.5287    9 MN  -1 0 0   10 MN  -1 1 0
  43 O    1     1.9610     3.7058   20 MN   0 0 0
  43 O    1     2.5376     4.7954   41 O   -1 0 0
  43 O    2     2.6458     4.9999   61 O    0 0 0   62 O    0 1 0
  43 O    2     2.7624     5.2202   57 O   -1 0 0   58 O   -1 1 0
  43 O    2     2.8247     5.3378   35 O    0 0 0   35 O    0 1 0

  44 O    2     1.8673     3.5287   11 MN  -1 0 0   12 MN  -1 1 0
  44 O    1     1.9610     3.7058   19 MN   0 0 0
  44 O    1     2.5376     4.7953   42 O   -1 0 1
  44 O    2     2.6458     4.9999   63 O    0 0 1   64 O    0 1 1
  44 O    2     2.7624     5.2202   59 O   -1 0 0   60 O   -1 1 0
  44 O    2     2.8247     5.3378   36 O    0 0 0   36 O    0 1 0

  45 O    2     1.8673     3.5287   15 MN   0 0 0   16 MN   0 1 0
  45 O    1     1.9608     3.7053   24 MN   0 0 0
  45 O    1     2.5377     4.7955   48 O    0 0 0
  45 O    2     2.6452     4.9987   51 O    0 0 0   52 O    0 1 0
  45 O    2     2.7627     5.2208   53 O    0 0 0   54 O    0 1 0
  45 O    2     2.8247     5.3379   37 O    0 0 0   37 O    0 1 0

  46 O    2     1.8673     3.5287   13 MN   0 0 0   14 MN   0 1 0
  46 O    1     1.9608     3.7053   23 MN   0 0 0
  46 O    1     2.5377     4.7955   47 O    0 0 0
  46 O    2     2.6452     4.9987   49 O    0 0 0   50 O    0 1 0
  46 O    2     2.7628     5.2209   55 O    0 0 0   56 O    0 1 0
  46 O    2     2.8247     5.3379   38 O    0 0 0   38 O    0 1 0

  47 O    2     1.8672     3.5285   13 MN   0 0 0   14 MN   0 1 0
  47 O    1     1.9652     3.7136   21 MN   0 0 0
  47 O    1     2.5377     4.7955   46 O    0 0 0
  47 O    2     2.6402     4.9892   55 O    0 0 0   56 O    0 1 0
  47 O    2     2.7585     5.2128   49 O    0 0 0   50 O    0 1 0
  47 O    2     2.8240     5.3365   39 O    0 0 0   39 O    0 1 0

  48 O    2     1.8672     3.5285   15 MN   0 0 0   16 MN   0 1 0
  48 O    1     1.9652     3.7136   22 MN   0 0 0
  48 O    1     2.5377     4.7955   45 O    0 0 0
  48 O    2     2.6402     4.9892   53 O    0 0 0   54 O    0 1 0
  48 O    2     2.7584     5.2127   51 O    0 0 0   52 O    0 1 0
  48 O    2     2.8240     5.3365   40 O    0 0 0   40 O    0 1 0

  49 O    1     1.8926     3.5766   17 MN   0 0 0
  49 O    1     1.9266     3.6407   13 MN   0 0 0
  49 O    1     2.3839     4.5050    1 GD   0 0 0
  49 O    1     2.4633     4.6550    7 GD   0 0 0
  49 O    1     2.6166     4.9447   29 O    0 0 0
  49 O    1     2.6452     4.9987   46 O    0 0 0

  50 O    1     1.8926     3.5766   17 MN   0-1 0
  50 O    1     1.9266     3.6407   14 MN   0 0 0
  50 O    1     2.3839     4.5050    1 GD   0 0 0
  50 O    1     2.4633     4.6550    7 GD   0 0 0
  50 O    1     2.6166     4.9447   30 O    0 0 0
  50 O    1     2.6452     4.9987   46 O    0-1 0

  51 O    1     1.8926     3.5765   18 MN   0 0 0
  51 O    1     1.9266     3.6407   15 MN   0 0 0
  51 O    1     2.3840     4.5050    2 GD   0 0 0
  51 O    1     2.4634     4.6551    8 GD   0 0 0
  51 O    1     2.6166     4.9447   31 O    0 0 0
  51 O    1     2.6452     4.9987   45 O    0 0 0

  52 O    1     1.8926     3.5765   18 MN   0-1 0
  52 O    1     1.9266     3.6407   16 MN   0 0 0
  52 O    1     2.3840     4.5050    2 GD   0 0 0
  52 O    1     2.4634     4.6551    8 GD   0 0 0
  52 O    1     2.6166     4.9447   32 O    0 0 0
  52 O    1     2.6452     4.9987   45 O    0-1 0

  53 O    1     1.8933     3.5779   20 MN   0 0 0
  53 O    1     1.9089     3.6072   15 MN   0 0 0
  53 O    1     2.3999     4.5352    3 GD   0 0 0
  53 O    1     2.4629     4.6541    6 GD   0 0 0
  53 O    1     2.6165     4.9445   31 O   -1 0 0
  53 O    1     2.6402     4.9892   48 O    0 0 0

  54 O    1     1.8933     3.5779   20 MN   0-1 0
  54 O    1     1.9089     3.6072   16 MN   0 0 0
  54 O    1     2.3999     4.5352    3 GD   0 0 0
  54 O    1     2.4629     4.6541    6 GD   0 0 0
  54 O    1     2.6165     4.9445   32 O   -1 0 0
  54 O    1     2.6402     4.9892   48 O    0-1 0

  55 O    1     1.8933     3.5779   19 MN   0 0 0
  55 O    1     1.9089     3.6072   13 MN   0 0 0
  55 O    1     2.3999     4.5352    4 GD   0 0 0
  55 O    1     2.4629     4.6542    5 GD   0 0 0
  55 O    1     2.6165     4.9445   29 O   -1 0 0
  55 O    1     2.6402     4.9892   47 O    0 0 0

  56 O    1     1.8933     3.5779   19 MN   0-1 0
  56 O    1     1.9089     3.6072   14 MN   0 0 0
  56 O    1     2.3999     4.5352    4 GD   0 0 0
  56 O    1     2.4629     4.6542    5 GD   0 0 0
  56 O    1     2.6165     4.9445   30 O   -1 0 0
  56 O    1     2.6402     4.9892   47 O    0-1 0

  57 O    1     1.8932     3.5776   24 MN   0 0 0
  57 O    1     1.9090     3.6075    9 MN   0 0 0
  57 O    1     2.4000     4.5354    8 GD   0 0 0
  57 O    1     2.4627     4.6538    1 GD   0 0 0
  57 O    1     2.6164     4.9443   25 O    0 0 0
  57 O    1     2.6405     4.9898   41 O    0 0 0

  58 O    1     1.8932     3.5776   24 MN   0-1 0
  58 O    1     1.9090     3.6075   10 MN   0 0 0
  58 O    1     2.4000     4.5354    8 GD   0 0 0
  58 O    1     2.4627     4.6538    1 GD   0 0 0
  58 O    1     2.6164     4.9443   26 O    0 0 0
  58 O    1     2.6405     4.9898   41 O    0-1 0

  59 O    1     1.8932     3.5776   23 MN   0 0 0
  59 O    1     1.9090     3.6075   11 MN   0 0 0
  59 O    1     2.4000     4.5354    7 GD   0 0 0
  59 O    1     2.4627     4.6538    2 GD   0 0 1
  59 O    1     2.6164     4.9443   27 O    0 0 0
  59 O    1     2.6405     4.9898   42 O    0 0 1

  60 O    1     1.8932     3.5776   23 MN   0-1 0
  60 O    1     1.9090     3.6075   12 MN   0 0 0
  60 O    1     2.4000     4.5354    7 GD   0 0 0
  60 O    1     2.4627     4.6538    2 GD   0 0 1
  60 O    1     2.6164     4.9443   28 O    0 0 0
  60 O    1     2.6405     4.9898   42 O    0-1 1

  61 O    1     1.8926     3.5764   21 MN   0 0 0
  61 O    1     1.9265     3.6405    9 MN  -1 0 0
  61 O    1     2.3840     4.5050    5 GD   0 0 0
  61 O    1     2.4640     4.6562    3 GD   0 0 0
  61 O    1     2.6167     4.9449   25 O    0 0 0
  61 O    1     2.6458     4.9999   43 O    0 0 0

  62 O    1     1.8926     3.5764   21 MN   0-1 0
  62 O    1     1.9265     3.6405   10 MN  -1 0 0
  62 O    1     2.3840     4.5050    5 GD   0 0 0
  62 O    1     2.4640     4.6562    3 GD   0 0 0
  62 O    1     2.6167     4.9449   26 O    0 0 0
  62 O    1     2.6458     4.9999   43 O    0-1 0

  63 O    1     1.8926     3.5765   22 MN   0 0 0
  63 O    1     1.9265     3.6405   11 MN  -1 0-1
  63 O    1     2.3840     4.5050    6 GD   0 0 0
  63 O    1     2.4639     4.6561    4 GD   0 0-1
  63 O    1     2.6167     4.9449   27 O    0 0-1
  63 O    1     2.6458     4.9999   44 O    0 0-1

  64 O    1     1.8926     3.5765   22 MN   0-1 0
  64 O    1     1.9265     3.6405   12 MN  -1 0-1
  64 O    1     2.3840     4.5050    6 GD   0 0 0
  64 O    1     2.4639     4.6561    4 GD   0 0-1
  64 O    1     2.6167     4.9449   28 O    0 0-1
  64 O    1     2.6458     4.9999   44 O    0-1-1


 SYMMETRY ALLOWED DIRECTION(ANGSTROM)   1 ATOM    1 (Z=264)
   0.9921566   0.0000000  -0.0004919      -0.0157485  -0.0000000   0.0000078
  -0.0157485  -0.0000000   0.0000078      -0.0157485  -0.0000000   0.0000078
  -0.0157485  -0.0000000   0.0000078      -0.0157485  -0.0000000   0.0000078
  -0.0157485  -0.0000000   0.0000078      -0.0157485  -0.0000000   0.0000078
  -0.0157485  -0.0000000   0.0000078      -0.0157485  -0.0000000   0.0000078
  -0.0157485  -0.0000000   0.0000078      -0.0157485  -0.0000000   0.0000078
  -0.0157485  -0.0000000   0.0000078      -0.0157485  -0.0000000   0.0000078
  -0.0157485  -0.0000000   0.0000078      -0.0157485  -0.0000000   0.0000078
  -0.0157485  -0.0000000   0.0000078      -0.0157485  -0.0000000   0.0000078
  -0.0157485  -0.0000000   0.0000078      -0.0157485  -0.0000000   0.0000078
  -0.0157485  -0.0000000   0.0000078      -0.0157485  -0.0000000   0.0000078
  -0.0157485  -0.0000000   0.0000078      -0.0157485  -0.0000000   0.0000078
  -0.0157485  -0.0000000   0.0000078      -0.0157485  -0.0000000   0.0000078
  -0.0157485  -0.0000000   0.0000078      -0.0157485  -0.0000000   0.0000078
  -0.0157485  -0.0000000   0.0000078      -0.0157485  -0.0000000   0.0000078
  -0.0157485  -0.0000000   0.0000078      -0.0157485  -0.0000000   0.0000078
  -0.0157485  -0.0000000   0.0000078      -0.0157485  -0.0000000   0.0000078
  -0.0157485  -0.0000000   0.0000078      -0.0157485  -0.0000000   0.0000078
  -0.0157485  -0.0000000   0.0000078      -0.0157485  -0.0000000   0.0000078
  -0.0157485  -0.0000000   0.0000078      -0.0157485  -0.0000000   0.0000078
  -0.0157485  -0.0000000   0.0000078      -0.0157485  -0.0000000   0.0000078
  -0.0157485  -0.0000000   0.0000078      -0.0157485  -0.0000000   0.0000078
  -0.0157485  -0.0000000   0.0000078      -0.0157485  -0.0000000   0.0000078
  -0.0157485  -0.0000000   0.0000078      -0.0157485  -0.0000000   0.0000078
  -0.0157485  -0.0000000   0.0000078      -0.0157485  -0.0000000   0.0000078
  -0.0157485  -0.0000000   0.0000078      -0.0157485  -0.0000000   0.0000078
  -0.0157485  -0.0000000   0.0000078      -0.0157485  -0.0000000   0.0000078
  -0.0157485  -0.0000000   0.0000078      -0.0157485  -0.0000000   0.0000078
  -0.0157485  -0.0000000   0.0000078      -0.0157485  -0.0000000   0.0000078
  -0.0157485  -0.0000000   0.0000078      -0.0157485  -0.0000000   0.0000078
  -0.0157485  -0.0000000   0.0000078      -0.0157485  -0.0000000   0.0000078
  -0.0157485  -0.0000000   0.0000078      -0.0157485  -0.0000000   0.0000078

 SYMMETRY ALLOWED DIRECTION(ANGSTROM)   2 ATOM    1 (Z=264)
  -0.0000000   0.9921567  -0.0000000       0.0000000  -0.0157485   0.0000000
   0.0000000  -0.0157485   0.0000000       0.0000000  -0.0157485   0.0000000
   0.0000000  -0.0157485   0.0000000       0.0000000  -0.0157485   0.0000000
   0.0000000  -0.0157485   0.0000000       0.0000000  -0.0157485   0.0000000
   0.0000000  -0.0157485   0.0000000       0.0000000  -0.0157485   0.0000000
   0.0000000  -0.0157485   0.0000000       0.0000000  -0.0157485   0.0000000
   0.0000000  -0.0157485   0.0000000       0.0000000  -0.0157485   0.0000000
   0.0000000  -0.0157485   0.0000000       0.0000000  -0.0157485   0.0000000
   0.0000000  -0.0157485   0.0000000       0.0000000  -0.0157485   0.0000000
   0.0000000  -0.0157485   0.0000000       0.0000000  -0.0157485   0.0000000
   0.0000000  -0.0157485   0.0000000       0.0000000  -0.0157485   0.0000000
   0.0000000  -0.0157485   0.0000000       0.0000000  -0.0157485   0.0000000
   0.0000000  -0.0157485   0.0000000       0.0000000  -0.0157485   0.0000000
   0.0000000  -0.0157485   0.0000000       0.0000000  -0.0157485   0.0000000
   0.0000000  -0.0157485   0.0000000       0.0000000  -0.0157485   0.0000000
   0.0000000  -0.0157485   0.0000000       0.0000000  -0.0157485   0.0000000
   0.0000000  -0.0157485   0.0000000       0.0000000  -0.0157485   0.0000000
   0.0000000  -0.0157485   0.0000000       0.0000000  -0.0157485   0.0000000
   0.0000000  -0.0157485   0.0000000       0.0000000  -0.0157485   0.0000000
   0.0000000  -0.0157485   0.0000000       0.0000000  -0.0157485   0.0000000
   0.0000000  -0.0157485   0.0000000       0.0000000  -0.0157485   0.0000000
   0.0000000  -0.0157485   0.0000000       0.0000000  -0.0157485   0.0000000
   0.0000000  -0.0157485   0.0000000       0.0000000  -0.0157485   0.0000000
   0.0000000  -0.0157485   0.0000000       0.0000000  -0.0157485   0.0000000
   0.0000000  -0.0157485   0.0000000       0.0000000  -0.0157485   0.0000000
   0.0000000  -0.0157485   0.0000000       0.0000000  -0.0157485   0.0000000
   0.0000000  -0.0157485   0.0000000       0.0000000  -0.0157485   0.0000000
   0.0000000  -0.0157485   0.0000000       0.0000000  -0.0157485   0.0000000
   0.0000000  -0.0157485   0.0000000       0.0000000  -0.0157485   0.0000000
   0.0000000  -0.0157485   0.0000000       0.0000000  -0.0157485   0.0000000
   0.0000000  -0.0157485   0.0000000       0.0000000  -0.0157485   0.0000000
   0.0000000  -0.0157485   0.0000000       0.0000000  -0.0157485   0.0000000

 SYMMETRY ALLOWED DIRECTION(ANGSTROM)   3 ATOM    1 (Z=264)
   0.0004919   0.0000000   0.9921566      -0.0000078  -0.0000000  -0.0157485
  -0.0000078  -0.0000000  -0.0157485      -0.0000078  -0.0000000  -0.0157485
  -0.0000078  -0.0000000  -0.0157485      -0.0000078  -0.0000000  -0.0157485
  -0.0000078  -0.0000000  -0.0157485      -0.0000078  -0.0000000  -0.0157485
  -0.0000078  -0.0000000  -0.0157485      -0.0000078  -0.0000000  -0.0157485
  -0.0000078  -0.0000000  -0.0157485      -0.0000078  -0.0000000  -0.0157485
  -0.0000078  -0.0000000  -0.0157485      -0.0000078  -0.0000000  -0.0157485
  -0.0000078  -0.0000000  -0.0157485      -0.0000078  -0.0000000  -0.0157485
  -0.0000078  -0.0000000  -0.0157485      -0.0000078  -0.0000000  -0.0157485
  -0.0000078  -0.0000000  -0.0157485      -0.0000078  -0.0000000  -0.0157485
  -0.0000078  -0.0000000  -0.0157485      -0.0000078  -0.0000000  -0.0157485
  -0.0000078  -0.0000000  -0.0157485      -0.0000078  -0.0000000  -0.0157485
  -0.0000078  -0.0000000  -0.0157485      -0.0000078  -0.0000000  -0.0157485
  -0.0000078  -0.0000000  -0.0157485      -0.0000078  -0.0000000  -0.0157485
  -0.0000078  -0.0000000  -0.0157485      -0.0000078  -0.0000000  -0.0157485
  -0.0000078  -0.0000000  -0.0157485      -0.0000078  -0.0000000  -0.0157485
  -0.0000078  -0.0000000  -0.0157485      -0.0000078  -0.0000000  -0.0157485
  -0.0000078  -0.0000000  -0.0157485      -0.0000078  -0.0000000  -0.0157485
  -0.0000078  -0.0000000  -0.0157485      -0.0000078  -0.0000000  -0.0157485
  -0.0000078  -0.0000000  -0.0157485      -0.0000078  -0.0000000  -0.0157485
  -0.0000078  -0.0000000  -0.0157485      -0.0000078  -0.0000000  -0.0157485
  -0.0000078  -0.0000000  -0.0157485      -0.0000078  -0.0000000  -0.0157485
  -0.0000078  -0.0000000  -0.0157485      -0.0000078  -0.0000000  -0.0157485
  -0.0000078  -0.0000000  -0.0157485      -0.0000078  -0.0000000  -0.0157485
  -0.0000078  -0.0000000  -0.0157485      -0.0000078  -0.0000000  -0.0157485
  -0.0000078  -0.0000000  -0.0157485      -0.0000078  -0.0000000  -0.0157485
  -0.0000078  -0.0000000  -0.0157485      -0.0000078  -0.0000000  -0.0157485
  -0.0000078  -0.0000000  -0.0157485      -0.0000078  -0.0000000  -0.0157485
  -0.0000078  -0.0000000  -0.0157485      -0.0000078  -0.0000000  -0.0157485
  -0.0000078  -0.0000000  -0.0157485      -0.0000078  -0.0000000  -0.0157485
  -0.0000078  -0.0000000  -0.0157485      -0.0000078  -0.0000000  -0.0157485
  -0.0000078  -0.0000000  -0.0157485      -0.0000078  -0.0000000  -0.0157485

 SYMMETRY ALLOWED DIRECTION(ANGSTROM)   4 ATOM    2 (Z=264)
   0.0000000   0.0000000  -0.0000000       0.9920316   0.0000000  -0.0004918
  -0.0160005  -0.0000000   0.0000079      -0.0160005  -0.0000000   0.0000079
  -0.0160005  -0.0000000   0.0000079      -0.0160005  -0.0000000   0.0000079
  -0.0160005  -0.0000000   0.0000079      -0.0160005  -0.0000000   0.0000079
  -0.0160005  -0.0000000   0.0000079      -0.0160005  -0.0000000   0.0000079
  -0.0160005  -0.0000000   0.0000079      -0.0160005  -0.0000000   0.0000079
  -0.0160005  -0.0000000   0.0000079      -0.0160005  -0.0000000   0.0000079
  -0.0160005  -0.0000000   0.0000079      -0.0160005  -0.0000000   0.0000079
  -0.0160005  -0.0000000   0.0000079      -0.0160005  -0.0000000   0.0000079
  -0.0160005  -0.0000000   0.0000079      -0.0160005  -0.0000000   0.0000079
  -0.0160005  -0.0000000   0.0000079      -0.0160005  -0.0000000   0.0000079
  -0.0160005  -0.0000000   0.0000079      -0.0160005  -0.0000000   0.0000079
  -0.0160005  -0.0000000   0.0000079      -0.0160005  -0.0000000   0.0000079
  -0.0160005  -0.0000000   0.0000079      -0.0160005  -0.0000000   0.0000079
  -0.0160005  -0.0000000   0.0000079      -0.0160005  -0.0000000   0.0000079
  -0.0160005  -0.0000000   0.0000079      -0.0160005  -0.0000000   0.0000079
  -0.0160005  -0.0000000   0.0000079      -0.0160005  -0.0000000   0.0000079
  -0.0160005  -0.0000000   0.0000079      -0.0160005  -0.0000000   0.0000079
  -0.0160005  -0.0000000   0.0000079      -0.0160005  -0.0000000   0.0000079
  -0.0160005  -0.0000000   0.0000079      -0.0160005  -0.0000000   0.0000079
  -0.0160005  -0.0000000   0.0000079      -0.0160005  -0.0000000   0.0000079
  -0.0160005  -0.0000000   0.0000079      -0.0160005  -0.0000000   0.0000079
  -0.0160005  -0.0000000   0.0000079      -0.0160005  -0.0000000   0.0000079
  -0.0160005  -0.0000000   0.0000079      -0.0160005  -0.0000000   0.0000079
  -0.0160005  -0.0000000   0.0000079      -0.0160005  -0.0000000   0.0000079
  -0.0160005  -0.0000000   0.0000079      -0.0160005  -0.0000000   0.0000079
  -0.0160005  -0.0000000   0.0000079      -0.0160005  -0.0000000   0.0000079
  -0.0160005  -0.0000000   0.0000079      -0.0160005  -0.0000000   0.0000079
  -0.0160005  -0.0000000   0.0000079      -0.0160005  -0.0000000   0.0000079
  -0.0160005  -0.0000000   0.0000079      -0.0160005  -0.0000000   0.0000079
  -0.0160005  -0.0000000   0.0000079      -0.0160005  -0.0000000   0.0000079
  -0.0160005  -0.0000000   0.0000079      -0.0160005  -0.0000000   0.0000079

 SYMMETRY ALLOWED DIRECTION(ANGSTROM)   5 ATOM    2 (Z=264)
   0.0000000   0.0000000   0.0000000      -0.0000000   0.9920317  -0.0000000
   0.0000000  -0.0160005   0.0000000       0.0000000  -0.0160005   0.0000000
   0.0000000  -0.0160005   0.0000000       0.0000000  -0.0160005   0.0000000
   0.0000000  -0.0160005   0.0000000       0.0000000  -0.0160005   0.0000000
   0.0000000  -0.0160005   0.0000000       0.0000000  -0.0160005   0.0000000
   0.0000000  -0.0160005   0.0000000       0.0000000  -0.0160005   0.0000000
   0.0000000  -0.0160005   0.0000000       0.0000000  -0.0160005   0.0000000
   0.0000000  -0.0160005   0.0000000       0.0000000  -0.0160005   0.0000000
   0.0000000  -0.0160005   0.0000000       0.0000000  -0.0160005   0.0000000
   0.0000000  -0.0160005   0.0000000       0.0000000  -0.0160005   0.0000000
   0.0000000  -0.0160005   0.0000000       0.0000000  -0.0160005   0.0000000
   0.0000000  -0.0160005   0.0000000       0.0000000  -0.0160005   0.0000000
   0.0000000  -0.0160005   0.0000000       0.0000000  -0.0160005   0.0000000
   0.0000000  -0.0160005   0.0000000       0.0000000  -0.0160005   0.0000000
   0.0000000  -0.0160005   0.0000000       0.0000000  -0.0160005   0.0000000
   0.0000000  -0.0160005   0.0000000       0.0000000  -0.0160005   0.0000000
   0.0000000  -0.0160005   0.0000000       0.0000000  -0.0160005   0.0000000
[...]
                 15 MN   (  0  0  0)     3.529     1.867    -0.049
                 22 MN   (  0  0  0)     3.714     1.965     0.104
                 45 O    (  0  0  0)     4.795     2.538     0.019
                 53 O    (  0  0  0)     4.989     2.640     0.004
                 51 O    (  0  0  0)     5.213     2.758     0.002
                 40 O    (  0  0  0)     5.337     2.824    -0.000

 ATOM A  49 O    ATOM B     CELL      R(AB)/AU R(AB)/ANG    OVPOP(AB)
                 17 MN   (  0  0  0)     3.577     1.893     0.030
                 13 MN   (  0  0  0)     3.641     1.927     0.030
                  1 GD   (  0  0  0)     4.505     2.384     0.009
                  7 GD   (  0  0  0)     4.655     2.463     0.006
                 29 O    (  0  0  0)     4.945     2.617    -0.004
                 46 O    (  0  0  0)     4.999     2.645    -0.003

 ATOM A  50 O    ATOM B     CELL      R(AB)/AU R(AB)/ANG    OVPOP(AB)
                 17 MN   (  0 -1  0)     3.577     1.893     0.030
                 14 MN   (  0  0  0)     3.641     1.927     0.030
                  1 GD   (  0  0  0)     4.505     2.384     0.009
                  7 GD   (  0  0  0)     4.655     2.463     0.006
                 30 O    (  0  0  0)     4.945     2.617    -0.004
                 46 O    (  0 -1  0)     4.999     2.645    -0.003

 ATOM A  51 O    ATOM B     CELL      R(AB)/AU R(AB)/ANG    OVPOP(AB)
                 18 MN   (  0  0  0)     3.577     1.893    -0.030
                 15 MN   (  0  0  0)     3.641     1.927    -0.030
                  2 GD   (  0  0  0)     4.505     2.384    -0.009
                  8 GD   (  0  0  0)     4.655     2.463    -0.006
                 31 O    (  0  0  0)     4.945     2.617     0.004
                 45 O    (  0  0  0)     4.999     2.645     0.003

 ATOM A  52 O    ATOM B     CELL      R(AB)/AU R(AB)/ANG    OVPOP(AB)
                 18 MN   (  0 -1  0)     3.577     1.893    -0.030
                 16 MN   (  0  0  0)     3.641     1.927    -0.030
                  2 GD   (  0  0  0)     4.505     2.384    -0.009
                  8 GD   (  0  0  0)     4.655     2.463    -0.006
                 32 O    (  0  0  0)     4.945     2.617     0.004
                 45 O    (  0 -1  0)     4.999     2.645     0.003

 ATOM A  53 O    ATOM B     CELL      R(AB)/AU R(AB)/ANG    OVPOP(AB)
                 20 MN   (  0  0  0)     3.578     1.893     0.031
                 15 MN   (  0  0  0)     3.607     1.909    -0.037
                  3 GD   (  0  0  0)     4.535     2.400     0.002
                  6 GD   (  0  0  0)     4.654     2.463    -0.000
                 31 O    ( -1  0  0)     4.944     2.617    -0.006
                 48 O    (  0  0  0)     4.989     2.640     0.004

 ATOM A  54 O    ATOM B     CELL      R(AB)/AU R(AB)/ANG    OVPOP(AB)
                 20 MN   (  0 -1  0)     3.578     1.893     0.031
                 16 MN   (  0  0  0)     3.607     1.909    -0.037
                  3 GD   (  0  0  0)     4.535     2.400     0.002
                  6 GD   (  0  0  0)     4.654     2.463    -0.000
                 32 O    ( -1  0  0)     4.944     2.617    -0.006
                 48 O    (  0 -1  0)     4.989     2.640     0.004

 ATOM A  55 O    ATOM B     CELL      R(AB)/AU R(AB)/ANG    OVPOP(AB)
                 19 MN   (  0  0  0)     3.578     1.893    -0.031
                 13 MN   (  0  0  0)     3.607     1.909     0.037
                  4 GD   (  0  0  0)     4.535     2.400    -0.002
                  5 GD   (  0  0  0)     4.654     2.463     0.000
                 29 O    ( -1  0  0)     4.944     2.617     0.006
                 47 O    (  0  0  0)     4.989     2.640    -0.004

 ATOM A  56 O    ATOM B     CELL      R(AB)/AU R(AB)/ANG    OVPOP(AB)
                 19 MN   (  0 -1  0)     3.578     1.893    -0.031
                 14 MN   (  0  0  0)     3.607     1.909     0.037
                  4 GD   (  0  0  0)     4.535     2.400    -0.002
                  5 GD   (  0  0  0)     4.654     2.463     0.000
                 30 O    ( -1  0  0)     4.944     2.617     0.006
                 47 O    (  0 -1  0)     4.989     2.640    -0.004

 ATOM A  57 O    ATOM B     CELL      R(AB)/AU R(AB)/ANG    OVPOP(AB)
                 24 MN   (  0  0  0)     3.578     1.893     0.031
                  9 MN   (  0  0  0)     3.608     1.909    -0.037
                  8 GD   (  0  0  0)     4.535     2.400     0.002
                  1 GD   (  0  0  0)     4.654     2.463    -0.000
                 25 O    (  0  0  0)     4.944     2.616    -0.006
                 41 O    (  0  0  0)     4.990     2.640     0.004

 ATOM A  58 O    ATOM B     CELL      R(AB)/AU R(AB)/ANG    OVPOP(AB)
                 24 MN   (  0 -1  0)     3.578     1.893     0.031
                 10 MN   (  0  0  0)     3.608     1.909    -0.037
                  8 GD   (  0  0  0)     4.535     2.400     0.002
                  1 GD   (  0  0  0)     4.654     2.463    -0.000
                 26 O    (  0  0  0)     4.944     2.616    -0.006
                 41 O    (  0 -1  0)     4.990     2.640     0.004

 ATOM A  59 O    ATOM B     CELL      R(AB)/AU R(AB)/ANG    OVPOP(AB)
                 23 MN   (  0  0  0)     3.578     1.893    -0.031
                 11 MN   (  0  0  0)     3.608     1.909     0.037
                  7 GD   (  0  0  0)     4.535     2.400    -0.002
                  2 GD   (  0  0  1)     4.654     2.463     0.000
                 27 O    (  0  0  0)     4.944     2.616     0.006
                 42 O    (  0  0  1)     4.990     2.641    -0.004

 ATOM A  60 O    ATOM B     CELL      R(AB)/AU R(AB)/ANG    OVPOP(AB)
                 23 MN   (  0 -1  0)     3.578     1.893    -0.031
                 12 MN   (  0  0  0)     3.608     1.909     0.037
                  7 GD   (  0  0  0)     4.535     2.400    -0.002
                  2 GD   (  0  0  1)     4.654     2.463     0.000
                 28 O    (  0  0  0)     4.944     2.616     0.006
                 42 O    (  0 -1  1)     4.990     2.641    -0.004

 ATOM A  61 O    ATOM B     CELL      R(AB)/AU R(AB)/ANG    OVPOP(AB)
                 21 MN   (  0  0  0)     3.576     1.893    -0.030
                  9 MN   ( -1  0  0)     3.641     1.926    -0.030
                  5 GD   (  0  0  0)     4.505     2.384    -0.009
                  3 GD   (  0  0  0)     4.656     2.464    -0.006
                 25 O    (  0  0  0)     4.945     2.617     0.004
                 43 O    (  0  0  0)     5.000     2.646     0.003

 ATOM A  62 O    ATOM B     CELL      R(AB)/AU R(AB)/ANG    OVPOP(AB)
                 21 MN   (  0 -1  0)     3.576     1.893    -0.030
                 10 MN   ( -1  0  0)     3.641     1.926    -0.030
                  5 GD   (  0  0  0)     4.505     2.384    -0.009
                  3 GD   (  0  0  0)     4.656     2.464    -0.006
                 26 O    (  0  0  0)     4.945     2.617     0.004
                 43 O    (  0 -1  0)     5.000     2.646     0.003

 ATOM A  63 O    ATOM B     CELL      R(AB)/AU R(AB)/ANG    OVPOP(AB)
                 22 MN   (  0  0  0)     3.576     1.893     0.030
                 11 MN   ( -1  0 -1)     3.641     1.926     0.030
                  6 GD   (  0  0  0)     4.505     2.384     0.009
                  4 GD   (  0  0 -1)     4.656     2.464     0.006
                 27 O    (  0  0 -1)     4.945     2.617    -0.004
                 44 O    (  0  0 -1)     5.000     2.646    -0.003

 ATOM A  64 O    ATOM B     CELL      R(AB)/AU R(AB)/ANG    OVPOP(AB)
                 22 MN   (  0 -1  0)     3.576     1.893     0.030
                 12 MN   ( -1  0 -1)     3.641     1.926     0.030
                  6 GD   (  0  0  0)     4.505     2.384     0.009
                  4 GD   (  0  0 -1)     4.656     2.464     0.006
                 28 O    (  0  0 -1)     4.945     2.617    -0.004
                 44 O    (  0 -1 -1)     5.000     2.646    -0.003
 EIGENVECTORS IN FORTRAN UNIT 10

 FINAL OPTIMIZED GEOMETRY - DIMENSIONALITY OF THE SYSTEM      3
 (NON PERIODIC DIRECTION: LATTICE PARAMETER FORMALLY SET TO 500)
 *******************************************************************************
 LATTICE PARAMETERS (ANGSTROMS AND DEGREES) - BOHR = 0.5291772083 ANGSTROM
 PRIMITIVE CELL - CENTRING CODE 1/0 VOLUME=   709.486521 - DENSITY  6.512 g/cm^3
         A              B              C           ALPHA      BETA       GAMMA 
     8.56919749     5.64333549    14.67128413    90.000000  90.002853  90.000000
 *******************************************************************************
 ATOMS IN THE ASYMMETRIC UNIT   64 - ATOMS IN THE UNIT CELL:   64
     ATOM                 X/A                 Y/B                 Z/C    
 *******************************************************************************
      1 T 264 GD    1.737765373176E-01 -2.716461402311E-17  6.991953244431E-02
      2 T 264 GD    1.737769212566E-01  5.211489306577E-17 -4.300799824364E-01
      3 T 264 GD   -1.739458367426E-01  2.718393618576E-17 -6.994260375686E-02
      4 T 264 GD   -1.739435977607E-01 -5.209616899630E-17  4.300591526468E-01
      5 T 264 GD   -3.261925129087E-01  1.613978485415E-18  1.801606963915E-01
      6 T 264 GD   -3.261951173712E-01  8.089394756594E-17 -3.198399883832E-01
      7 T 264 GD    3.260352082812E-01 -8.090493471736E-17  3.200025921389E-01
      8 T 264 GD    3.260373237376E-01 -1.625728943000E-18 -1.799960327884E-01
      9 T  25 MN    4.996338796304E-01  2.572658793664E-01 -6.645515622020E-05
     10 T  25 MN    4.996338796304E-01 -2.572658793664E-01 -6.645515622020E-05
     11 T  25 MN    4.996320831876E-01  2.572631395903E-01  4.999332024413E-01
     12 T  25 MN    4.996320831876E-01 -2.572631395903E-01  4.999332024413E-01
     13 T  25 MN   -3.435882451510E-04  2.572590926113E-01  2.501472528751E-01
     14 T  25 MN   -3.435882451510E-04 -2.572590926113E-01  2.501472528751E-01
     15 T  25 MN   -3.430544033958E-04  2.572587113090E-01 -2.498533222769E-01
     16 T  25 MN   -3.430544033958E-04 -2.572587113090E-01 -2.498533222769E-01
     17 T  25 MN    3.525594405387E-01 -5.000000000000E-01  2.028257939146E-01
     18 T  25 MN    3.525587265929E-01 -5.000000000000E-01 -2.971749311818E-01
     19 T  25 MN   -3.536465972123E-01 -5.000000000000E-01  2.974415179135E-01
     20 T  25 MN   -3.536450900321E-01 -5.000000000000E-01 -2.025622402619E-01
     21 T  25 MN   -1.474528450223E-01 -5.000000000000E-01  4.728557642233E-02
     22 T  25 MN   -1.474499768967E-01 -5.000000000000E-01 -4.527159759218E-01
     23 T  25 MN    1.463674766056E-01 -5.000000000000E-01  4.526205556486E-01
     24 T  25 MN    1.463659365206E-01 -5.000000000000E-01 -4.737740809367E-02
     25 T   8 O    -1.171629527210E-04  2.750478598359E-01 -3.217246504986E-04
     26 T   8 O    -1.171629527210E-04 -2.750478598359E-01 -3.217246504986E-04
     27 T   8 O    -1.145953153184E-04  2.750496883804E-01  4.996786577546E-01
     28 T   8 O    -1.145953153184E-04 -2.750496883804E-01  4.996786577546E-01
     29 T   8 O     4.999171556865E-01  2.750147876843E-01  2.503908064149E-01
     30 T   8 O     4.999171556865E-01 -2.750147876843E-01  2.503908064149E-01
     31 T   8 O     4.999153883433E-01  2.750161147640E-01 -2.496094130999E-01
     32 T   8 O     4.999153883433E-01 -2.750161147640E-01 -2.496094130999E-01
     33 T   8 O     4.483635075083E-01 -5.436465795621E-17  8.123765142028E-02
     34 T   8 O     4.483598178425E-01  2.491501115623E-17 -4.187605082810E-01
     35 T   8 O    -4.480800096794E-01  5.432713145585E-17 -8.116640615827E-02
     36 T   8 O    -4.480755943305E-01 -2.495313515752E-17  4.188350984062E-01
     37 T   8 O     5.195362834259E-02  2.194876213619E-17 -1.687422179441E-01
     38 T   8 O     5.195447324440E-02 -5.733098727816E-17  3.312581081801E-01
     39 T   8 O    -5.163378567244E-02 -2.199158824512E-17  1.688256788034E-01
     40 T   8 O    -5.163161725672E-02  5.728782386641E-17 -3.311742783521E-01
     41 T   8 O     4.362280186388E-01 -5.000000000000E-01  7.807583695387E-02
     42 T   8 O     4.362318725985E-01 -5.000000000000E-01 -4.219234894018E-01
     43 T   8 O    -4.342813602095E-01 -5.000000000000E-01 -7.747198579661E-02
     44 T   8 O    -4.342865908989E-01 -5.000000000000E-01  4.225291573151E-01
     45 T   8 O     6.584556131539E-02 -5.000000000000E-01 -1.724791407415E-01
     46 T   8 O     6.585632872846E-02 -5.000000000000E-01  3.275187216814E-01
     47 T   8 O    -6.379006171350E-02 -5.000000000000E-01  1.720018221774E-01
     48 T   8 O    -6.378364462843E-02 -5.000000000000E-01 -3.279995099122E-01
     49 T   8 O     2.074728227558E-01  2.472278909277E-01  2.001988664843E-01
     50 T   8 O     2.074728227558E-01 -2.472278909277E-01  2.001988664843E-01
     51 T   8 O     2.074723088087E-01  2.472319631995E-01 -2.998007324388E-01
     52 T   8 O     2.074723088087E-01 -2.472319631995E-01 -2.998007324388E-01
     53 T   8 O    -2.067642282850E-01  2.494016894313E-01 -2.010463530049E-01
     54 T   8 O    -2.067642282850E-01 -2.494016894313E-01 -2.010463530049E-01
     55 T   8 O    -2.067642464471E-01  2.494029708943E-01  2.989569061528E-01
     56 T   8 O    -2.067642464471E-01 -2.494029708943E-01  2.989569061528E-01
     57 T   8 O     2.931851668939E-01  2.493487613195E-01 -4.887587407737E-02
     58 T   8 O     2.931851668939E-01 -2.493487613195E-01 -4.887587407737E-02
     59 T   8 O     2.931842898022E-01  2.493485141738E-01  4.511241674618E-01
     60 T   8 O     2.931842898022E-01 -2.493485141738E-01  4.511241674618E-01
     61 T   8 O    -2.925560369975E-01  2.472656086949E-01  4.988736931881E-02
     62 T   8 O    -2.925560369975E-01 -2.472656086949E-01  4.988736931881E-02
     63 T   8 O    -2.925554528302E-01  2.472618979093E-01 -4.501147507191E-01
     64 T   8 O    -2.925554528302E-01 -2.472618979093E-01 -4.501147507191E-01

 T = ATOM BELONGING TO THE ASYMMETRIC UNIT
 INFORMATION **** fort.34 **** GEOMETRY OUTPUT FILE

 DIRECT LATTICE VECTORS CARTESIAN COMPONENTS (ANGSTROM)
          X                    Y                    Z
   0.856919644041E+01   0.522135069486E-15  -0.424830741183E-02
   0.119756189693E-17   0.564333549406E+01  -0.444692204101E-18
   0.654308456520E-02   0.894802981721E-15   0.146712826727E+02


 CARTESIAN COORDINATES - PRIMITIVE CELL
 *******************************************************************************
 *      ATOM          X(ANGSTROM)         Y(ANGSTROM)         Z(ANGSTROM)
 *******************************************************************************
    1   264 GD    1.489582774422E+00  1.304522536131E-32  1.025070968682E+00
    2   264 GD    1.486314525363E+00  0.000000000000E+00 -6.310563251977E+00
    3   264 GD   -1.491033685410E+00 -1.304522536131E-32 -1.025408735194E+00
    4   264 GD   -1.487742945359E+00  5.218090144523E-32  6.310258360339E+00
    5   264 GD   -2.794028913834E+00  2.609045072262E-32  2.644574269340E+00
    6   264 GD   -2.797322778748E+00 -5.218090144523E-32 -4.691077102468E+00
    7   264 GD    2.795953550273E+00  0.000000000000E+00  4.693463387474E+00
    8   264 GD    2.792700144749E+00  0.000000000000E+00 -2.642157783782E+00
    9    25 MN    4.281460428015E+00  1.451837668439E+00 -3.097580696000E-03
   10    25 MN    4.281460428015E+00 -1.451837668439E+00 -3.097580696000E-03
   11    25 MN    4.284716573986E+00  1.451822206963E+00  7.332538739802E+00
   12    25 MN    4.284716573986E+00 -1.451822206963E+00  7.332538739802E+00
   13    25 MN   -1.307540538000E-03  1.451799368503E+00  3.669982516399E+00
   14    25 MN   -1.307540538000E-03 -1.451799368503E+00  3.669982516399E+00
   15    25 MN   -4.574511989000E-03  1.451797216686E+00 -3.665667260437E+00
   16    25 MN   -4.574511989000E-03 -1.451797216686E+00 -3.665667260437E+00
   17    25 MN    3.022478209219E+00  2.821667747030E+00  2.974216774952E+00
   18    25 MN    3.019200544250E+00  2.821667747030E+00 -4.361435196459E+00
   19    25 MN   -3.028520976990E+00  2.821667747030E+00  4.365350987366E+00
   20    25 MN   -3.031779628539E+00  2.821667747030E+00 -2.970345492641E+00
   21    25 MN   -1.263243001168E+00  2.821667747030E+00  6.943664830480E-01
   22    25 MN   -1.266489976076E+00  2.821667747030E+00 -6.641297640366E+00
   23    25 MN    1.257213194092E+00  2.821667747030E+00  6.639902301359E+00
   24    25 MN    1.253928467842E+00  2.821667747030E+00 -6.957091539350E-01
   25     8 O    -1.006097429000E-03  1.552187349977E+00 -4.719615546000E-03
   26     8 O    -1.006097429000E-03 -1.552187349977E+00 -4.719615546000E-03
   27     8 O     2.287449945000E-03  1.552197669067E+00  7.330927320269E+00
   28     8 O     2.287449945000E-03 -1.552197669067E+00  7.330927320269E+00
   29     8 O     4.285526639229E+00  1.552000712730E+00  3.671430497800E+00
   30     8 O     4.285526639229E+00 -1.552000712730E+00  3.671430497800E+00
   31     8 O     4.282239950799E+00  1.552008201886E+00 -3.664214051605E+00
   32     8 O     4.282239950799E+00 -1.552008201886E+00 -3.664214051605E+00
   33     8 O     3.842646517373E+00  5.218090144523E-32  1.189955761641E+00
   34     8 O     3.839343369661E+00  0.000000000000E+00 -6.145658559491E+00
   35     8 O    -3.840216702623E+00 -3.913567608392E-32 -1.188911706649E+00
   36     8 O    -3.836907314504E+00  0.000000000000E+00  6.146751684834E+00
   37     8 O     4.440967524580E-01  0.000000000000E+00 -2.475885493260E+00
   38     8 O     4.473755370040E-01  0.000000000000E+00  4.859760624160E+00
   39     8 O    -4.413554116960E-01  0.000000000000E+00  2.477108612329E+00
   40     8 O    -4.446083721180E-01 -5.218090144523E-32 -4.858532104649E+00
   41     8 O     3.738634441330E+00  2.821667747030E+00  1.143619443133E+00
   42     8 O     3.735395928793E+00  2.821667747030E+00 -6.192012026364E+00
   43     8 O    -3.721949191798E+00  2.821667747030E+00 -1.134768442116E+00
   44     8 O    -3.718722464841E+00  2.821667747030E+00  6.200889687371E+00
   45     8 O     5.631150040370E-01  2.821667747030E+00 -2.530769961149E+00
   46     8 O     5.664788004110E-01  2.821667747030E+00  4.804839968459E+00
   47     8 O    -5.455041473010E-01  2.821667747030E+00  2.523758353176E+00
   48     8 O    -5.487207090370E-01  2.821667747030E+00 -4.811902553898E+00
   49     8 O     1.779185292354E+00  1.395189931994E+00  2.936292752614E+00
   50     8 O     1.779185292354E+00 -1.395189931994E+00  2.936292752614E+00
   51     8 O     1.775909348582E+00  1.395212913190E+00 -4.399342697240E+00
   52     8 O     1.775909348582E+00 -1.395212913190E+00 -4.399342697240E+00
   53     8 O    -1.773118752313E+00  1.407457406246E+00 -2.948729477247E+00
   54     8 O    -1.773118752313E+00 -1.407457406246E+00 -2.948729477247E+00
   55     8 O    -1.769847344340E+00  1.407464637972E+00  4.386959675204E+00
   56     8 O    -1.769847344340E+00 -1.407464637972E+00  4.386959675204E+00
   57     8 O     2.512041489551E+00  1.407158715154E+00 -7.183173051820E-01
   58     8 O     2.512041489551E+00 -1.407158715154E+00 -7.183173051820E-01
   59     8 O     2.515305516134E+00  1.407157320428E+00  6.617324644327E+00
   60     8 O     2.515305516134E+00 -1.407157320428E+00  6.617324644327E+00
   61     8 O    -2.506643733583E+00  1.395402786008E+00  7.331545650540E-01
   62     8 O    -2.506643733583E+00 -1.395402786008E+00  7.331545650540E-01
   63     8 O    -2.509910283893E+00  1.395381844800E+00 -6.602517877453E+00
   64     8 O    -2.509910283893E+00 -1.395381844800E+00 -6.602517877453E+00

 ****    1 SYMMOPS - TRANSLATORS IN FRACTIONAL UNITS
 **** MATRICES AND TRANSLATORS IN THE CRYSTALLOGRAPHIC REFERENCE FRAME
   V INV                    ROTATION MATRICES                   TRANSLATORS
   1   1  1.00  0.00  0.00  0.00  1.00  0.00  0.00  0.00  1.00  0.00  0.00  0.00
 TTTTTTTTTTTTTTTTTTTTTTTTTTTTTT END         TELAPSE     5820.94 TCPU     4367.84
 EEEEEEEEEE TERMINATION  DATE 03 07 2020 TIME 11:23:39.8
NODE    0 CPU TIME =      4367.835
    TOTAL CPU TIME =   2095575.418
